ITEM: TIMESTEP
1
ITEM: NUMBER OF ATOMS
3
ITEM: BOX BOUNDS ff ff ff
-10 10
-10 10
-10 10
ITEM: ATOMS id type fx fy fz x y z radius mux muy muz 
1 1 0 -1.13189e-08 4.03e-07 0 0 0 1 0 0.0146423 3.33689 
3 1 0 2.26393e-08 1.65892e-13 0 3.4 1 1 0 6.74064e-07 3.11319 
2 1 0 -1.13205e-08 -4.03e-07 0 0 2 1 0 -0.014657 3.33684 
