ITEM: TIMESTEP
2
ITEM: NUMBER OF ATOMS
3
ITEM: BOX BOUNDS ff ff ff
-10 10
-10 10
-10 10
ITEM: ATOMS id type fx fy fz x y z radius mux muy muz 
1 1 0 -1.37095e-08 3.95283e-07 0 0 0 1 0 0.0203375 3.33384 
3 1 0 2.7419e-08 1.44002e-15 0 3.1 1 1 0 -1.43833e-08 3.10726 
2 1 0 -1.37095e-08 -3.95283e-07 0 0 2 1 0 -0.0203376 3.33384 
