ITEM: TIMESTEP
1
ITEM: NUMBER OF ATOMS
3
ITEM: BOX BOUNDS ff ff ff
-10 10
-10 10
-10 10
ITEM: ATOMS id type fx fy fz x y z radius mux muy muz 
1 1 0 -1.58154e-08 3.83328e-07 0 0 0 1 0 0.02889 3.33033 
3 1 0 3.16344e-08 5.51955e-13 0 2.8 1 1 0 2.8646e-06 3.10025 
2 1 0 -1.5819e-08 -3.83329e-07 0 0 2 1 0 -0.0289238 3.33026 
