ITEM: TIMESTEP
1
ITEM: NUMBER OF ATOMS
3
ITEM: BOX BOUNDS ff ff ff
-10 10
-10 10
-10 10
ITEM: ATOMS id type fx fy fz x y z radius mux muy muz 
1 1 0 -9.84882e-09 4.06613e-07 0 0 0 1 0 0.0119172 3.33857 
3 1 0 1.96989e-08 1.13426e-13 0 3.6 1 1 0 4.35198e-07 3.11655 
2 1 0 -9.85013e-09 -4.06613e-07 0 0 2 1 0 -0.0119289 3.33853 
