ITEM: TIMESTEP
3
ITEM: NUMBER OF ATOMS
3
ITEM: BOX BOUNDS ff ff ff
-10 10
-10 10
-10 10
ITEM: ATOMS id type fx fy fz x y z radius mux muy muz 
1 1 0 -8.53767e-09 4.09378e-07 0 0 0 1 0 0.00979708 3.33998 
3 1 0 1.70753e-08 -2.39132e-17 0 3.8 1 1 0 4.57944e-10 3.11947 
2 1 0 -8.53767e-09 -4.09378e-07 0 0 2 1 0 -0.00979707 3.33998 
