ITEM: TIMESTEP
0
ITEM: NUMBER OF ATOMS
3
ITEM: BOX BOUNDS ff ff ff
-10 10
-10 10
-10 10
ITEM: ATOMS id type fx fy fz x y z radius mux muy muz 
1 1 0 -1.45996e-08 3.85831e-07 0 0 0 1 0 0.00102265 3.34965 
3 1 0 3.21261e-08 4.23151e-11 0 2.8 1 1 0 -0.00031362 3.09993 
2 1 0 -1.75265e-08 -3.85873e-07 0 0 2 1 0 -0.0280551 3.33147 
