ITEM: TIMESTEP
1
ITEM: NUMBER OF ATOMS
3
ITEM: BOX BOUNDS ff ff ff
-10 10
-10 10
-10 10
ITEM: ATOMS id type fx fy fz x y z radius mux muy muz 
1 1 0 -8.54123e-09 4.09275e-07 0 0 0 1 0 0.00989307 3.3392 
3 1 0 1.70731e-08 -1.52538e-12 0 3.8 1 1 0 3.87884e-05 3.11952 
2 1 0 -8.53183e-09 -4.09273e-07 0 0 2 1 0 -0.00979992 3.33994 
