ITEM: TIMESTEP
1
ITEM: NUMBER OF ATOMS
3
ITEM: BOX BOUNDS ff ff ff
-10 10
-10 10
-10 10
ITEM: ATOMS id type fx fy fz x y z radius mux muy muz 
1 1 0 -1.62294e-08 3.77962e-07 0 0 0 1 0 0.032683 3.32903 
3 1 0 3.2463e-08 6.7707e-13 0 2.7 1 1 0 3.7222e-06 3.09774 
2 1 0 -1.62336e-08 -3.77963e-07 0 0 2 1 0 -0.0327231 3.32895 
