ITEM: TIMESTEP
1
ITEM: NUMBER OF ATOMS
3
ITEM: BOX BOUNDS ff ff ff
-10 10
-10 10
-10 10
ITEM: ATOMS id type fx fy fz x y z radius mux muy muz 
1 1 0 -6.87807e-09 4.1242e-07 0 0 0 1 0 0.00739845 3.34185 
3 1 0 1.37569e-08 4.62967e-14 0 4.1 1 1 0 1.58899e-07 3.12314 
2 1 0 -6.87887e-09 -4.1242e-07 0 0 2 1 0 -0.00740545 3.34182 
