ITEM: TIMESTEP
3
ITEM: NUMBER OF ATOMS
3
ITEM: BOX BOUNDS ff ff ff
-10 10
-10 10
-10 10
ITEM: ATOMS id type fx fy fz x y z radius mux muy muz 
1 1 0 -5.17652e-09 4.15094e-07 0 0 0 1 0 0.00523342 3.34372 
3 1 0 1.0353e-08 4.34123e-19 0 4.5 1 1 0 -9.32763e-12 3.12695 
2 1 0 -5.17652e-09 -4.15094e-07 0 0 2 1 0 -0.00523342 3.34372 
