ITEM: TIMESTEP
0
ITEM: NUMBER OF ATOMS
3
ITEM: BOX BOUNDS ff ff ff
-10 10
-10 10
-10 10
ITEM: ATOMS id type fx fy fz x y z radius mux muy muz 
1 1 0 -9.89752e-09 4.06567e-07 0 0 0 1 0 0.000458048 3.35014 
3 1 0 2.12435e-08 4.8304e-12 0 3.5 1 1 0 -7.58728e-05 3.11484 
2 1 0 -1.1346e-08 -4.06572e-07 0 0 2 1 0 -0.0128096 3.33849 
