ITEM: TIMESTEP
2
ITEM: NUMBER OF ATOMS
3
ITEM: BOX BOUNDS ff ff ff
-10 10
-10 10
-10 10
ITEM: ATOMS id type fx fy fz x y z radius mux muy muz 
1 1 0 4.24855e-09 3.03827e-07 0 0 0 1 0 0.0855231 3.3216 
3 1 0 -8.49912e-09 6.28222e-13 0 2 1 1 0 -2.7303e-06 3.08676 
2 1 0 4.25057e-09 -3.03828e-07 0 0 2 1 0 -0.0854993 3.32158 
