ITEM: TIMESTEP
1
ITEM: NUMBER OF ATOMS
3
ITEM: BOX BOUNDS ff ff ff
-10 10
-10 10
-10 10
ITEM: ATOMS id type fx fy fz x y z radius mux muy muz 
1 1 0 -6.40209e-09 4.1321e-07 0 0 0 1 0 0.0067655 3.34238 
3 1 0 1.28049e-08 3.90583e-14 0 4.2 1 1 0 1.31668e-07 3.1242 
2 1 0 -6.40283e-09 -4.1321e-07 0 0 2 1 0 -0.00677188 3.34235 
