ITEM: TIMESTEP
3
ITEM: NUMBER OF ATOMS
3
ITEM: BOX BOUNDS ff ff ff
-10 10
-10 10
-10 10
ITEM: ATOMS id type fx fy fz x y z radius mux muy muz 
1 1 0 4.24892e-09 3.03825e-07 0 0 0 1 0 0.0854984 3.32158 
3 1 0 -8.49784e-09 -2.28642e-16 0 2 1 1 0 -6.40402e-08 3.08676 
2 1 0 4.24892e-09 -3.03825e-07 0 0 2 1 0 -0.0854984 3.32158 
