ITEM: TIMESTEP
3
ITEM: NUMBER OF ATOMS
3
ITEM: BOX BOUNDS ff ff ff
-10 10
-10 10
-10 10
ITEM: ATOMS id type fx fy fz x y z radius mux muy muz 
1 1 0 -1.5211e-08 3.8792e-07 0 0 0 1 0 0.0256456 3.33151 
3 1 0 3.04219e-08 8.01757e-18 0 2.9 1 1 0 -1.39626e-10 3.10269 
2 1 0 -1.5211e-08 -3.8792e-07 0 0 2 1 0 -0.0256456 3.33151 
