ITEM: TIMESTEP
0
ITEM: NUMBER OF ATOMS
3
ITEM: BOX BOUNDS ff ff ff
-10 10
-10 10
-10 10
ITEM: ATOMS id type fx fy fz x y z radius mux muy muz 
1 1 0 -7.47212e-09 4.11806e-07 0 0 0 1 0 0.000306159 3.35034 
3 1 0 1.5942e-08 1.58492e-12 0 3.9 1 1 0 -3.73485e-05 3.12074 
2 1 0 -8.46985e-09 -4.11808e-07 0 0 2 1 0 -0.00863813 3.34125 
