ITEM: TIMESTEP
1
ITEM: NUMBER OF ATOMS
3
ITEM: BOX BOUNDS ff ff ff
-10 10
-10 10
-10 10
ITEM: ATOMS id type fx fy fz x y z radius mux muy muz 
1 1 0 4.25059e-09 3.03942e-07 0 0 0 1 0 0.088711 3.32275 
3 1 0 -8.66183e-09 3.49246e-11 0 2 1 1 0 0.000644552 3.08684 
2 1 0 4.41123e-09 -3.03977e-07 0 0 2 1 0 -0.0855806 3.32164 
