ITEM: TIMESTEP
1
ITEM: NUMBER OF ATOMS
1
ITEM: BOX BOUNDS ff ff ff
-10 10
-10 10
-10 10
ITEM: ATOMS id type fx fy fz x y z radius mux muy muz 
3 1 0 2.74194e-08 2.99819e-13 0 3.1 1 1 0 1.35366e-06 3.10725 
