ITEM: TIMESTEP
1
ITEM: NUMBER OF ATOMS
3
ITEM: BOX BOUNDS ff ff ff
-10 10
-10 10
-10 10
ITEM: ATOMS id type fx fy fz x y z radius mux muy muz 
1 1 0 -1.44895e-08 3.91884e-07 0 0 0 1 0 0.0227796 3.33277 
3 1 0 2.89816e-08 3.66955e-13 0 3 1 1 0 1.72758e-06 3.10502 
2 1 0 -1.44921e-08 -3.91884e-07 0 0 2 1 0 -0.0228044 3.33271 
