ITEM: TIMESTEP
2
ITEM: NUMBER OF ATOMS
3
ITEM: BOX BOUNDS ff ff ff
-10 10
-10 10
-10 10
ITEM: ATOMS id type fx fy fz x y z radius mux muy muz 
1 1 0 -7.94432e-09 4.10519e-07 0 0 0 1 0 0.00890676 3.34064 
3 1 0 1.58886e-08 2.96693e-16 0 3.9 1 1 0 -4.27392e-09 3.12079 
2 1 0 -7.94432e-09 -4.10519e-07 0 0 2 1 0 -0.00890677 3.34064 
