ITEM: TIMESTEP
1
ITEM: NUMBER OF ATOMS
3
ITEM: BOX BOUNDS ff ff ff
-10 10
-10 10
-10 10
ITEM: ATOMS id type fx fy fz x y z radius mux muy muz 
1 1 0 -7.94389e-09 4.10524e-07 0 0 0 1 0 0.00889798 3.34068 
3 1 0 1.58888e-08 6.56402e-14 0 3.9 1 1 0 2.34462e-07 3.12078 
2 1 0 -7.94486e-09 -4.10524e-07 0 0 2 1 0 -0.00890649 3.34064 
