ITEM: TIMESTEP
3
ITEM: NUMBER OF ATOMS
3
ITEM: BOX BOUNDS ff ff ff
-10 10
-10 10
-10 10
ITEM: ATOMS id type fx fy fz x y z radius mux muy muz 
1 1 0 -9.17271e-09 4.08083e-07 0 0 0 1 0 0.010799 3.33928 
3 1 0 1.83454e-08 1.61565e-18 0 3.7 1 1 0 -3.17881e-11 3.11807 
2 1 0 -9.17271e-09 -4.08083e-07 0 0 2 1 0 -0.010799 3.33928 
