ITEM: TIMESTEP
0
ITEM: NUMBER OF ATOMS
3
ITEM: BOX BOUNDS ff ff ff
-10 10
-10 10
-10 10
ITEM: ATOMS id type fx fy fz x y z radius mux muy muz 
1 1 0 -4.56097e-09 4.16454e-07 0 0 0 1 0 0.000163545 3.35058 
3 1 0 9.67288e-09 2.57355e-13 0 4.6 1 1 0 -1.24268e-05 3.12773 
2 1 0 -5.11191e-09 -4.16455e-07 0 0 2 1 0 -0.00467309 3.34452 
