ITEM: TIMESTEP
1
ITEM: NUMBER OF ATOMS
2
ITEM: BOX BOUNDS ff ff ff
-10 10
-10 10
-10 10
ITEM: ATOMS id type fx fy fz x y z radius mux muy muz 
2 1 -2.85181e-21 1.83388e-20 7.73692e-08 0 0 -3 1 0 0 3.20087 
1 1 -2.8102e-22 -2.02369e-21 -7.73214e-08 0 0 0 1 0 0 3.20087 
