ITEM: TIMESTEP
0
ITEM: NUMBER OF ATOMS
2
ITEM: BOX BOUNDS ff ff ff
-10 10
-10 10
-10 10
ITEM: ATOMS id type fx fy fz x y z radius mux muy muz 
2 1 -9.60359e-22 5.32167e-20 3.17426e-07 0 0 -2.2 1 0 0 3.29753 
1 1 -9.46002e-22 -5.12091e-21 -3.17154e-07 0 0 0 1 0 0 3.29644 
