ITEM: TIMESTEP
0
ITEM: NUMBER OF ATOMS
1
ITEM: BOX BOUNDS ff ff ff
-10 10
-10 10
-10 10
ITEM: ATOMS id type fx fy fz x y z radius mux muy muz 
3 1 1.28971e-20 -1.89569e-20 1.37063e-07 0 0 -3.3 1 0 3.12057 0 
