ITEM: TIMESTEP
2
ITEM: NUMBER OF ATOMS
1
ITEM: BOX BOUNDS ff ff ff
-10 10
-10 10
-10 10
ITEM: ATOMS id type fx fy fz x y z radius mux muy muz 
3 1 1.02286e-20 8.12842e-08 8.62321e-10 0 3.5 1 1 0 -9.78261e-07 7.02993 
