ITEM: TIMESTEP
3
ITEM: NUMBER OF ATOMS
1
ITEM: BOX BOUNDS ff ff ff
-10 10
-10 10
-10 10
ITEM: ATOMS id type fx fy fz x y z radius mux muy muz 
3 1 -3.55299e-21 8.01076e-08 8.63386e-10 0 3.6 1 1 0 -2.47988e-08 7.03897 
