ITEM: TIMESTEP
0
ITEM: NUMBER OF ATOMS
1
ITEM: BOX BOUNDS ff ff ff
-10 10
-10 10
-10 10
ITEM: ATOMS id type fx fy fz x y z radius mux muy muz 
3 1 -8.80955e-21 -4.78887e-09 1.88179e-09 0 2.7 1 1 0 -0.00458867 6.93207 
