ITEM: TIMESTEP
3
ITEM: NUMBER OF ATOMS
1
ITEM: BOX BOUNDS ff ff ff
-10 10
-10 10
-10 10
ITEM: ATOMS id type fx fy fz x y z radius mux muy muz 
3 1 2.70503e-20 7.58326e-08 8.58847e-10 0 3.2 1 1 0 -4.9894e-08 6.99907 
