ITEM: TIMESTEP
2
ITEM: NUMBER OF ATOMS
1
ITEM: BOX BOUNDS ff ff ff
-10 10
-10 10
-10 10
ITEM: ATOMS id type fx fy fz x y z radius mux muy muz 
3 1 -1.2521e-20 -3.75477e-07 9.17726e-10 0 2.3 1 1 0 -8.55081e-07 6.89252 
