ITEM: TIMESTEP
1
ITEM: NUMBER OF ATOMS
1
ITEM: BOX BOUNDS ff ff ff
-10 10
-10 10
-10 10
ITEM: ATOMS id type fx fy fz x y z radius mux muy muz 
3 1 -1.95081e-20 8.13318e-08 8.78974e-10 0 3.4 1 1 0 2.09055e-05 7.02011 
