ITEM: TIMESTEP
3
ITEM: NUMBER OF ATOMS
1
ITEM: BOX BOUNDS ff ff ff
-10 10
-10 10
-10 10
ITEM: ATOMS id type fx fy fz x y z radius mux muy muz 
3 1 2.38552e-20 -3.75486e-07 9.1196e-10 0 2.3 1 1 0 -2.34322e-07 6.89254 
