ITEM: TIMESTEP
3
ITEM: NUMBER OF ATOMS
1
ITEM: BOX BOUNDS ff ff ff
-10 10
-10 10
-10 10
ITEM: ATOMS id type fx fy fz x y z radius mux muy muz 
3 1 1.23058e-20 8.13014e-08 8.60709e-10 0 3.4 1 1 0 -3.49218e-08 7.02027 
