ITEM: TIMESTEP
3
ITEM: NUMBER OF ATOMS
1
ITEM: BOX BOUNDS ff ff ff
-10 10
-10 10
-10 10
ITEM: ATOMS id type fx fy fz x y z radius mux muy muz 
3 1 -1.60026e-20 -8.45901e-07 9.83644e-10 0 2.1 1 1 0 -1.36485e-07 6.88991 
