ITEM: TIMESTEP
3
ITEM: NUMBER OF ATOMS
1
ITEM: BOX BOUNDS ff ff ff
-10 10
-10 10
-10 10
ITEM: ATOMS id type fx fy fz x y z radius mux muy muz 
3 1 3.66038e-21 -5.75859e-08 -2.22259e-17 0 3.1 1 1 0 3.21849 1.1025e-10 
