ITEM: TIMESTEP
1
ITEM: NUMBER OF ATOMS
1
ITEM: BOX BOUNDS ff ff ff
-10 10
-10 10
-10 10
ITEM: ATOMS id type fx fy fz x y z radius mux muy muz 
3 1 7.99877e-17 -3.85623e-08 -2.07054e-14 0 3.6 1 1 0 3.19427 -2.97995e-07 
