ITEM: TIMESTEP
2
ITEM: NUMBER OF ATOMS
1
ITEM: BOX BOUNDS ff ff ff
-10 10
-10 10
-10 10
ITEM: ATOMS id type fx fy fz x y z radius mux muy muz 
3 1 -9.1433e-20 -4.52957e-08 -2.28238e-15 0 3.4 1 1 0 3.20259 1.14679e-08 
