ITEM: TIMESTEP
3
ITEM: NUMBER OF ATOMS
1
ITEM: BOX BOUNDS ff ff ff
-10 10
-10 10
-10 10
ITEM: ATOMS id type fx fy fz x y z radius mux muy muz 
3 1 -4.73533e-21 -4.90923e-08 -1.18419e-17 0 3.3 1 1 0 3.20738 7.50409e-11 
