ITEM: TIMESTEP
1
ITEM: NUMBER OF ATOMS
1
ITEM: BOX BOUNDS ff ff ff
-10 10
-10 10
-10 10
ITEM: ATOMS id type fx fy fz x y z radius mux muy muz 
3 1 1.57839e-16 -4.90913e-08 2.32368e-14 0 3.3 1 1 0 3.2074 -6.51746e-07 
