ITEM: TIMESTEP
2
ITEM: NUMBER OF ATOMS
1
ITEM: BOX BOUNDS ff ff ff
-10 10
-10 10
-10 10
ITEM: ATOMS id type fx fy fz x y z radius mux muy muz 
3 1 -5.24209e-19 -5.75859e-08 -5.54307e-15 0 3.1 1 1 0 3.21849 1.8765e-08 
