ITEM: TIMESTEP
0
ITEM: NUMBER OF ATOMS
1
ITEM: BOX BOUNDS ff ff ff
-10 10
-10 10
-10 10
ITEM: ATOMS id type fx fy fz x y z radius mux muy muz 
3 1 5.50132e-13 -7.89833e-08 2.01455e-09 0 2.6 1 1 0 3.25689 -0.000464726 
