ITEM: TIMESTEP
2
ITEM: NUMBER OF ATOMS
1
ITEM: BOX BOUNDS ff ff ff
-10 10
-10 10
-10 10
ITEM: ATOMS id type fx fy fz x y z radius mux muy muz 
3 1 -1.51029e-18 -6.72234e-08 -1.09955e-14 0 2.9 1 1 0 3.23202 2.59389e-08 
