ITEM: TIMESTEP
2
ITEM: NUMBER OF ATOMS
1
ITEM: BOX BOUNDS ff ff ff
-10 10
-10 10
-10 10
ITEM: ATOMS id type fx fy fz x y z radius mux muy muz 
3 1 1.13639e-20 -3.2876e-08 -8.6476e-16 0 3.8 1 1 0 3.18733 6.05833e-09 
