ITEM: TIMESTEP
2
ITEM: NUMBER OF ATOMS
1
ITEM: BOX BOUNDS ff ff ff
-10 10
-10 10
-10 10
ITEM: ATOMS id type fx fy fz x y z radius mux muy muz 
3 1 -6.77046e-18 -8.29525e-08 -3.56822e-14 0 2.6 1 1 0 3.25831 3.99253e-08 
