ITEM: TIMESTEP
2
ITEM: NUMBER OF ATOMS
1
ITEM: BOX BOUNDS ff ff ff
-10 10
-10 10
-10 10
ITEM: ATOMS id type fx fy fz x y z radius mux muy muz 
3 1 -2.40994e-20 -4.17904e-08 -1.755e-15 0 3.5 1 1 0 3.19823 9.74975e-09 
