ITEM: TIMESTEP
2
ITEM: NUMBER OF ATOMS
1
ITEM: BOX BOUNDS ff ff ff
-10 10
-10 10
-10 10
ITEM: ATOMS id type fx fy fz x y z radius mux muy muz 
3 1 -3.60057e-21 -3.55972e-08 -1.08174e-15 0 3.7 1 1 0 3.19064 7.0849e-09 
