ITEM: TIMESTEP
1
ITEM: NUMBER OF ATOMS
1
ITEM: BOX BOUNDS ff ff ff
-10 10
-10 10
-10 10
ITEM: ATOMS id type fx fy fz x y z radius mux muy muz 
3 1 1.2481e-16 -4.52949e-08 -1.13956e-17 0 3.4 1 1 0 3.2026 -4.99506e-07 
