ITEM: TIMESTEP
3
ITEM: NUMBER OF ATOMS
1
ITEM: BOX BOUNDS ff ff ff
-10 10
-10 10
-10 10
ITEM: ATOMS id type fx fy fz x y z radius mux muy muz 
3 1 -4.49512e-20 -6.72234e-08 -4.66784e-17 0 2.9 1 1 0 3.23202 1.66725e-10 
