ITEM: TIMESTEP
0
ITEM: NUMBER OF ATOMS
1
ITEM: BOX BOUNDS ff ff ff
-10 10
-10 10
-10 10
ITEM: ATOMS id type fx fy fz x y z radius mux muy muz 
3 1 2.58578e-13 -6.51717e-08 9.32404e-10 0 2.9 1 1 0 3.23121 -0.000237021 
