ITEM: TIMESTEP
0
ITEM: NUMBER OF ATOMS
1
ITEM: BOX BOUNDS ff ff ff
-10 10
-10 10
-10 10
ITEM: ATOMS id type fx fy fz x y z radius mux muy muz 
3 1 7.21002e-13 -8.30291e-08 2.64386e-09 0 2.5 1 1 0 3.26733 -0.000589008 
