ITEM: TIMESTEP
3
ITEM: NUMBER OF ATOMS
1
ITEM: BOX BOUNDS ff ff ff
-10 10
-10 10
-10 10
ITEM: ATOMS id type fx fy fz x y z radius mux muy muz 
3 1 -9.57297e-19 -9.98972e-08 -3.29156e-15 0 2.1 1 1 0 3.32523 1.45249e-09 
