ITEM: TIMESTEP
0
ITEM: NUMBER OF ATOMS
1
ITEM: BOX BOUNDS ff ff ff
-10 10
-10 10
-10 10
ITEM: ATOMS id type fx fy fz x y z radius mux muy muz 
3 1 1.62888e-13 -5.62269e-08 5.77362e-10 0 3.1 1 1 0 3.21791 -0.000155764 
