ITEM: TIMESTEP
0
ITEM: NUMBER OF ATOMS
1
ITEM: BOX BOUNDS ff ff ff
-10 10
-10 10
-10 10
ITEM: ATOMS id type fx fy fz x y z radius mux muy muz 
3 1 4.23909e-13 -7.45049e-08 1.54698e-09 0 2.7 1 1 0 3.24745 -0.000369035 
