ITEM: TIMESTEP
0
ITEM: NUMBER OF ATOMS
1
ITEM: BOX BOUNDS ff ff ff
-10 10
-10 10
-10 10
ITEM: ATOMS id type fx fy fz x y z radius mux muy muz 
3 1 1.27934e-12 -8.83295e-08 4.66781e-09 0 2.3 1 1 0 3.29164 -0.000965439 
