ITEM: TIMESTEP
1
ITEM: NUMBER OF ATOMS
1
ITEM: BOX BOUNDS ff ff ff
-10 10
-10 10
-10 10
ITEM: ATOMS id type fx fy fz x y z radius mux muy muz 
3 1 7.7613e-15 -9.98733e-08 2.09384e-11 0 2.1 1 1 0 3.32541 -2.77504e-05 
