LIGGGHTS (Version LIGGGHTS-PUBLIC 3.8.0, compiled 2023-08-09-13:19:05 by dustiest, git commit unknown)
### Angle of repose experiment in uniform magnetic field


### Initialization
# Preliminaries
units           si
atom_style      hybrid granular dipole
atom_modify     sort 10000 0

# periodic x boundaries, fixed y boundaries, fixed -z for floor and fixed shrink wrap for cieling
boundary        f f f

#LIGGGHTS-Public shouuld produce the same answers for any newton flag setting, besides round off
newton          off
soft_particles yes
communicate     single vel yes

# the product of the processors must equal P, the number of processors used when running the file: mpirun -np 4 ...
processors      4 1 4
# Declare domain
region          domain block 0 .126 0 .018 0 .150 units box
create_box      2 domain
Created orthogonal box = (0 0 0) to (0.126 0.018 0.15)
  4 by 1 by 4 MPI processor grid

# Neighbor skin style - atom pairs within a neighbor cutoff distance = force cutoff + skin distance, styele = bin
neighbor        0.0001 bin
# neigh_modify delay 0, this is the default, rebuild neighbor list every timestep
neigh_modify    delay 0
### Setup
# Material and interaction properties required
fix             m1 all property/global youngsModulus peratomtype 70e6 70e6
fix             m2 all property/global poissonsRatio peratomtype 0.24 0.24
fix             m3 all property/global coefficientRestitution peratomtypepair 2 0.2 0.2 0.2 0.2
fix             m4 all property/global coefficientFriction peratomtypepair 2 0.6 0.6 0.6 0.6
fix             m5 all property/global coefficientRollingFriction peratomtypepair  2 0.4 0.4 0.4 0.4
fix             m6 all property/global coefficientRollingViscousDamping peratomtypepair  2 0.4 0.4 0.4 0.4
fix             m7 all property/global coeffRollingStiffness scalar 10
fix             m8 all property/global cohesionEnergyDensity peratomtypepair 2 10 10 10 10

# fix             m9 all property/global magneticSusceptibility peratomtype 1 1

## box walls - define simulation

fix		        wall_y1 all wall/gran model hertz tangential history cohesion sjkr rolling_friction epsd primitive type 2 yplane 0.0
WARNING: 
	The contact model you specified is not located in any whitelist.
	Because of this the model will be run in an unoptimized version (increasing runtime by up to 20%).
	In order to optimize this model you have the following options:
		(i)  Run the genAutoExamplesWhitelist.sh script in your LIGGGHTS(R) source folder to automatically parse the input script
		(ii) Add the model combination by hand to your style_contact_model_user.whitelist that can be found in your LIGGGHTS(R) source folder
	If you perform one of the steps above LIGGGHTS(R) needs to be recompiled to generate the optimized code.

 (../contact_models.h:364)
fix		        wall_y2 all wall/gran model hertz tangential history cohesion sjkr rolling_friction epsd primitive type 2 yplane 0.018
WARNING: 
	The contact model you specified is not located in any whitelist.
	Because of this the model will be run in an unoptimized version (increasing runtime by up to 20%).
	In order to optimize this model you have the following options:
		(i)  Run the genAutoExamplesWhitelist.sh script in your LIGGGHTS(R) source folder to automatically parse the input script
		(ii) Add the model combination by hand to your style_contact_model_user.whitelist that can be found in your LIGGGHTS(R) source folder
	If you perform one of the steps above LIGGGHTS(R) needs to be recompiled to generate the optimized code.

 (../contact_models.h:364)
fix		        wall_z1 all wall/gran model hertz tangential history cohesion sjkr rolling_friction epsd primitive type 2 zplane 0.0        #floor
WARNING: 
	The contact model you specified is not located in any whitelist.
	Because of this the model will be run in an unoptimized version (increasing runtime by up to 20%).
	In order to optimize this model you have the following options:
		(i)  Run the genAutoExamplesWhitelist.sh script in your LIGGGHTS(R) source folder to automatically parse the input script
		(ii) Add the model combination by hand to your style_contact_model_user.whitelist that can be found in your LIGGGHTS(R) source folder
	If you perform one of the steps above LIGGGHTS(R) needs to be recompiled to generate the optimized code.

 (../contact_models.h:364)
fix             wall_x1 all wall/gran model hertz tangential history cohesion sjkr rolling_friction epsd primitive type 2 xplane 0.0
WARNING: 
	The contact model you specified is not located in any whitelist.
	Because of this the model will be run in an unoptimized version (increasing runtime by up to 20%).
	In order to optimize this model you have the following options:
		(i)  Run the genAutoExamplesWhitelist.sh script in your LIGGGHTS(R) source folder to automatically parse the input script
		(ii) Add the model combination by hand to your style_contact_model_user.whitelist that can be found in your LIGGGHTS(R) source folder
	If you perform one of the steps above LIGGGHTS(R) needs to be recompiled to generate the optimized code.

 (../contact_models.h:364)
fix             wall_x2 all wall/gran model hertz tangential history cohesion sjkr rolling_friction epsd primitive type 2 xplane 0.126
WARNING: 
	The contact model you specified is not located in any whitelist.
	Because of this the model will be run in an unoptimized version (increasing runtime by up to 20%).
	In order to optimize this model you have the following options:
		(i)  Run the genAutoExamplesWhitelist.sh script in your LIGGGHTS(R) source folder to automatically parse the input script
		(ii) Add the model combination by hand to your style_contact_model_user.whitelist that can be found in your LIGGGHTS(R) source folder
	If you perform one of the steps above LIGGGHTS(R) needs to be recompiled to generate the optimized code.

 (../contact_models.h:364)


# Mesh for incline
# fix             cad1 all mesh/surface file meshes/piling_test_incline.STL type 2 scale .0001 move 0.00 0.00 0.167 #rotate axis 1. 0. 0. angle -50.
# fix             cad2 all mesh/surface file meshes/piling_test_incline.STL type 2 scale .0001 move 0.126 0.018 0.167 #rotate axis 0. 1. 0. angle -180.
# fix             granwalls all wall/gran model hertz tangential history cohesion sjkr rolling_friction epsd mesh n_meshes 1 meshes cad1 #cad2

## Pair style
pair_style      gran model hertz tangential history cohesion sjkr rolling_friction epsd torsionTorque on
WARNING: 
	The contact model you specified is not located in any whitelist.
	Because of this the model will be run in an unoptimized version (increasing runtime by up to 20%).
	In order to optimize this model you have the following options:
		(i)  Run the genAutoExamplesWhitelist.sh script in your LIGGGHTS(R) source folder to automatically parse the input script
		(ii) Add the model combination by hand to your style_contact_model_user.whitelist that can be found in your LIGGGHTS(R) source folder
	If you perform one of the steps above LIGGGHTS(R) needs to be recompiled to generate the optimized code.

 (../contact_models.h:364)
pair_coeff	    * *  # the asterisks set force field coeefficients for all atom types, but then no other args? ASK TOM

#vGeometry Regions

# Particle floor
region          floor block 0 .126 0 .018 0 .0011 units box
# lattice         fcc 0.002 origin 0 0 0
# create_atoms    1 region floor
# group           fl region floor
# set             group fl density 2500 diameter 0.001
# fix             floor_fix fl freeze

# Particle incline
region          incline_lp1 plane 0.0565 0.000 0.000 -1.00 0.00 0.00
region          incline_lp2 plane 0.0565 0.000 0.056 -0.64 0.00 -0.76
region          incline_lp3 plane 0.055 0.000 0.056 0.64 0.00 0.76
region          incline_l intersect 3 incline_lp1 incline_lp2 incline_lp3
# lattice         fcc 0.001
# create_atoms    1 region incline_l
# group           ic_l region incline_l
# set             group ic_l density 2500 diameter 0.001
# fix             icl_fix ic_l freeze

# Particle incline
region          incline_rp1 plane 0.0695 0.000 0.000 1.00 0.00 0.00
region          incline_rp2 plane 0.0695 0.000 0.056 0.64 0.00 -0.76
region          incline_rp3 plane 0.071 0.000 0.056 -0.64 0.00 0.76
region          incline_r intersect 3 incline_rp1 incline_rp2 incline_rp3
# lattice         fcc 0.001
# create_atoms    1 region incline_r
# group           ic_r region incline_r
# set             group ic_r density 2500 diameter 0.001
# fix             icr_fix ic_r freeze

## Union region
region          freeze_geometry union 3 floor incline_l incline_r
lattice         fcc 0.001
Lattice spacing in x,y,z = 0.001 0.001 0.001
create_atoms    1 region freeze_geometry
Created 23922 atoms
group           pts_walls region freeze_geometry
23922 atoms in group pts_walls
set             group pts_walls density 2500 diameter 0.001
  23922 settings made for density
  23922 settings made for diameter

# particles and their distribution
fix	            pts1 all particletemplate/sphere 15485863 atom_type 2 density constant 2500 radius constant 0.001
fix             pdd1 all particledistribution/discrete 15487517 1 pts1 1.0

# # region and insertion
# fix             inface all mesh/surface file meshes/insertion_face.STL type 1 scale 0.001
region          insertion_b block .050 .076 EDGE EDGE 0.115 0.145
group           prtcls region insertion_b
0 atoms in group prtcls
fix             ins prtcls insert/rate/region seed 123457 distributiontemplate pdd1 nparticles 2000                 particlerate 5000 insert_every 1000 overlapcheck yes region insertion_b ntry_mc 10000

# Create stopper wall
fix             stopper all wall/gran model hertz tangential history primitive type 1 zplane 0.056

# # Gravity
fix             grav all gravity 9.81 vector 0.0 0.0 -1.0

### Detailed settings
# apply nve integration to all particles that are inserted as single particles
fix		        integr prtcls nve/sphere update dipole

# Time step
timestep        .000001 #seconds (1 microsecond)

## Thermo settings
# thermo style custom says what thermo data we want printed at each thermo timestep - timestep, num atoms, kinetic energy, volume
thermo_style 	custom step atoms ke vol
# thermo output every 1000 timesteps
thermo		1000
# LIGGGHTS will ignore last particles and will not normalize against num atoms
thermo_modify	lost ignore norm no

# Check time step and initialize dump file
fix             ctg all check/timestep/gran 1 0.01 0.01
run             1
Setting up run at Wed Aug  9 18:54:54 2023

INFO: Particle insertion ins: 5.000000 particles every 1000 steps - particle rate 5000.000000, (mass rate 5.235988e-02)
      2000 particles (mass 2.094395e-02) within 400000 steps
Memory usage per processor = 12.6867 Mbytes
    Step    Atoms         KinEng         Volume 
       0    23922           -nan      0.0003402 
INFO: Particle insertion ins: inserted 5 particle templates (mass 5.235988e-05) at step 1
 - a total of 5 particle templates (mass 5.235988e-05) inserted so far.
WARNING: time-step is 6.194516 % of rayleigh time (../fix_check_timestep_gran.cpp:200)
       1    23927            nan      0.0003402 
Loop time of 0.0178461 on 16 procs for 1 steps with 23927 atoms, finish time Wed Aug  9 18:54:54 2023


Pair  time (%) = 0.00262215 (14.6932)
Neigh time (%) = 0.00236041 (13.2265)
Comm  time (%) = 0.000348017 (1.9501)
Outpt time (%) = 6.41923e-05 (0.3597)
Other time (%) = 0.0124513 (69.7705)

Nlocal:    1495.44 ave 3402 max 0 min
Histogram: 8 0 0 0 0 0 2 0 2 4
Nghost:    181.125 ave 378 max 0 min
Histogram: 4 0 0 1 1 6 0 1 1 2
Neighs:    9199.44 ave 23595 max 0 min
Histogram: 8 0 0 0 2 0 2 0 0 4

Total # of neighbors = 147191
Ave neighs/atom = 6.15167
Neighbor list builds = 1
Dangerous builds = 0
unfix           ctg

# Create imaging information
dump            dmp all custom 1000 post/dump*.post id type x y z vx vy vz radius fx fy fz mass

# STL dump files
# dump		    dumpstl1 all mesh/stl 1000 post_stl/dumpcad*.stl

### execution and further settings

# ensure particles are static
velocity       all set 0. 0. 0.


## freeze the walls
fix             walls_freeze pts_walls freeze


# Fill the funnel
run             350000 upto
Setting up run at Wed Aug  9 18:54:54 2023

Memory usage per processor = 14.2134 Mbytes
    Step    Atoms         KinEng         Volume 
       1    23927              0      0.0003402 
    1000    23927  2.5144188e-09      0.0003402 
INFO: Particle insertion ins: inserted 5 particle templates (mass 5.235988e-05) at step 1001
 - a total of 10 particle templates (mass 1.047198e-04) inserted so far.
    2000    23932  1.2584682e-08      0.0003402 
INFO: Particle insertion ins: inserted 5 particle templates (mass 5.235988e-05) at step 2001
 - a total of 15 particle templates (mass 1.570796e-04) inserted so far.
    3000    23937  3.5249702e-08      0.0003402 
INFO: Particle insertion ins: inserted 5 particle templates (mass 5.235988e-05) at step 3001
 - a total of 20 particle templates (mass 2.094395e-04) inserted so far.
    4000    23942  7.5548388e-08      0.0003402 
INFO: Particle insertion ins: inserted 5 particle templates (mass 5.235988e-05) at step 4001
 - a total of 25 particle templates (mass 2.617994e-04) inserted so far.
    5000    23947  1.3851965e-07      0.0003402 
INFO: Particle insertion ins: inserted 5 particle templates (mass 5.235988e-05) at step 5001
 - a total of 30 particle templates (mass 3.141593e-04) inserted so far.
    6000    23952   2.292024e-07      0.0003402 
INFO: Particle insertion ins: inserted 5 particle templates (mass 5.235988e-05) at step 6001
 - a total of 35 particle templates (mass 3.665191e-04) inserted so far.
    7000    23957  3.5263555e-07      0.0003402 
INFO: Particle insertion ins: inserted 5 particle templates (mass 5.235988e-05) at step 7001
 - a total of 40 particle templates (mass 4.188790e-04) inserted so far.
    8000    23962  5.1385801e-07      0.0003402 
INFO: Particle insertion ins: inserted 5 particle templates (mass 5.235988e-05) at step 8001
 - a total of 45 particle templates (mass 4.712389e-04) inserted so far.
    9000    23967  7.1790869e-07      0.0003402 
INFO: Particle insertion ins: inserted 5 particle templates (mass 5.235988e-05) at step 9001
 - a total of 50 particle templates (mass 5.235988e-04) inserted so far.
   10000    23972   9.698265e-07      0.0003402 
INFO: Particle insertion ins: inserted 5 particle templates (mass 5.235988e-05) at step 10001
 - a total of 55 particle templates (mass 5.759587e-04) inserted so far.
   11000    23977  1.2746503e-06      0.0003402 
INFO: Particle insertion ins: inserted 5 particle templates (mass 5.235988e-05) at step 11001
 - a total of 60 particle templates (mass 6.283185e-04) inserted so far.
   12000    23982  1.6374191e-06      0.0003402 
INFO: Particle insertion ins: inserted 5 particle templates (mass 5.235988e-05) at step 12001
 - a total of 65 particle templates (mass 6.806784e-04) inserted so far.
   13000    23987  2.0631718e-06      0.0003402 
INFO: Particle insertion ins: inserted 5 particle templates (mass 5.235988e-05) at step 13001
 - a total of 70 particle templates (mass 7.330383e-04) inserted so far.
   14000    23992   2.535989e-06      0.0003402 
INFO: Particle insertion ins: inserted 5 particle templates (mass 5.235988e-05) at step 14001
 - a total of 75 particle templates (mass 7.853982e-04) inserted so far.
   15000    23997  3.1028261e-06      0.0003402 
INFO: Particle insertion ins: inserted 5 particle templates (mass 5.235988e-05) at step 15001
 - a total of 80 particle templates (mass 8.377580e-04) inserted so far.
   16000    24002  3.7477638e-06      0.0003402 
INFO: Particle insertion ins: inserted 5 particle templates (mass 5.235988e-05) at step 16001
 - a total of 85 particle templates (mass 8.901179e-04) inserted so far.
   17000    24007   4.475841e-06      0.0003402 
INFO: Particle insertion ins: inserted 5 particle templates (mass 5.235988e-05) at step 17001
 - a total of 90 particle templates (mass 9.424778e-04) inserted so far.
   18000    24012   5.242687e-06      0.0003402 
INFO: Particle insertion ins: inserted 5 particle templates (mass 5.235988e-05) at step 18001
 - a total of 95 particle templates (mass 9.948377e-04) inserted so far.
   19000    24017  6.1521599e-06      0.0003402 
INFO: Particle insertion ins: inserted 5 particle templates (mass 5.235988e-05) at step 19001
 - a total of 100 particle templates (mass 1.047198e-03) inserted so far.
   20000    24022  7.1598891e-06      0.0003402 
INFO: Particle insertion ins: inserted 5 particle templates (mass 5.235988e-05) at step 20001
 - a total of 105 particle templates (mass 1.099557e-03) inserted so far.
   21000    24027  8.2709134e-06      0.0003402 
INFO: Particle insertion ins: inserted 5 particle templates (mass 5.235988e-05) at step 21001
 - a total of 110 particle templates (mass 1.151917e-03) inserted so far.
   22000    24032  9.4548492e-06      0.0003402 
INFO: Particle insertion ins: inserted 5 particle templates (mass 5.235988e-05) at step 22001
 - a total of 115 particle templates (mass 1.204277e-03) inserted so far.
   23000    24037  1.0743747e-05      0.0003402 
INFO: Particle insertion ins: inserted 5 particle templates (mass 5.235988e-05) at step 23001
 - a total of 120 particle templates (mass 1.256637e-03) inserted so far.
   24000    24042  1.2194759e-05      0.0003402 
INFO: Particle insertion ins: inserted 5 particle templates (mass 5.235988e-05) at step 24001
 - a total of 125 particle templates (mass 1.308997e-03) inserted so far.
   25000    24047  1.3715099e-05      0.0003402 
INFO: Particle insertion ins: inserted 5 particle templates (mass 5.235988e-05) at step 25001
 - a total of 130 particle templates (mass 1.361357e-03) inserted so far.
   26000    24052  1.5418183e-05      0.0003402 
INFO: Particle insertion ins: inserted 5 particle templates (mass 5.235988e-05) at step 26001
 - a total of 135 particle templates (mass 1.413717e-03) inserted so far.
   27000    24057  1.7254795e-05      0.0003402 
INFO: Particle insertion ins: inserted 5 particle templates (mass 5.235988e-05) at step 27001
 - a total of 140 particle templates (mass 1.466077e-03) inserted so far.
   28000    24062  1.9229975e-05      0.0003402 
INFO: Particle insertion ins: inserted 5 particle templates (mass 5.235988e-05) at step 28001
 - a total of 145 particle templates (mass 1.518436e-03) inserted so far.
   29000    24067  2.1327487e-05      0.0003402 
INFO: Particle insertion ins: inserted 5 particle templates (mass 5.235988e-05) at step 29001
 - a total of 150 particle templates (mass 1.570796e-03) inserted so far.
   30000    24072  2.3521474e-05      0.0003402 
INFO: Particle insertion ins: inserted 5 particle templates (mass 5.235988e-05) at step 30001
 - a total of 155 particle templates (mass 1.623156e-03) inserted so far.
   31000    24077  2.5929126e-05      0.0003402 
INFO: Particle insertion ins: inserted 5 particle templates (mass 5.235988e-05) at step 31001
 - a total of 160 particle templates (mass 1.675516e-03) inserted so far.
   32000    24082  2.8446045e-05      0.0003402 
INFO: Particle insertion ins: inserted 5 particle templates (mass 5.235988e-05) at step 32001
 - a total of 165 particle templates (mass 1.727876e-03) inserted so far.
   33000    24087  3.1154817e-05      0.0003402 
INFO: Particle insertion ins: inserted 5 particle templates (mass 5.235988e-05) at step 33001
 - a total of 170 particle templates (mass 1.780236e-03) inserted so far.
   34000    24092  3.4020532e-05      0.0003402 
INFO: Particle insertion ins: inserted 5 particle templates (mass 5.235988e-05) at step 34001
 - a total of 175 particle templates (mass 1.832596e-03) inserted so far.
   35000    24097  3.7106774e-05      0.0003402 
INFO: Particle insertion ins: inserted 5 particle templates (mass 5.235988e-05) at step 35001
 - a total of 180 particle templates (mass 1.884956e-03) inserted so far.
   36000    24102  4.0345172e-05      0.0003402 
INFO: Particle insertion ins: inserted 5 particle templates (mass 5.235988e-05) at step 36001
 - a total of 185 particle templates (mass 1.937315e-03) inserted so far.
   37000    24107  4.3636531e-05      0.0003402 
INFO: Particle insertion ins: inserted 5 particle templates (mass 5.235988e-05) at step 37001
 - a total of 190 particle templates (mass 1.989675e-03) inserted so far.
   38000    24112  4.7232821e-05      0.0003402 
INFO: Particle insertion ins: inserted 5 particle templates (mass 5.235988e-05) at step 38001
 - a total of 195 particle templates (mass 2.042035e-03) inserted so far.
   39000    24117  5.1030066e-05      0.0003402 
INFO: Particle insertion ins: inserted 5 particle templates (mass 5.235988e-05) at step 39001
 - a total of 200 particle templates (mass 2.094395e-03) inserted so far.
   40000    24122  5.4660398e-05      0.0003402 
INFO: Particle insertion ins: inserted 5 particle templates (mass 5.235988e-05) at step 40001
 - a total of 205 particle templates (mass 2.146755e-03) inserted so far.
   41000    24127  5.8799306e-05      0.0003402 
INFO: Particle insertion ins: inserted 5 particle templates (mass 5.235988e-05) at step 41001
 - a total of 210 particle templates (mass 2.199115e-03) inserted so far.
   42000    24132  6.3118535e-05      0.0003402 
INFO: Particle insertion ins: inserted 5 particle templates (mass 5.235988e-05) at step 42001
 - a total of 215 particle templates (mass 2.251475e-03) inserted so far.
   43000    24137  6.7297566e-05      0.0003402 
INFO: Particle insertion ins: inserted 5 particle templates (mass 5.235988e-05) at step 43001
 - a total of 220 particle templates (mass 2.303835e-03) inserted so far.
   44000    24142  7.2053129e-05      0.0003402 
INFO: Particle insertion ins: inserted 5 particle templates (mass 5.235988e-05) at step 44001
 - a total of 225 particle templates (mass 2.356194e-03) inserted so far.
   45000    24147  7.6530557e-05      0.0003402 
INFO: Particle insertion ins: inserted 5 particle templates (mass 5.235988e-05) at step 45001
 - a total of 230 particle templates (mass 2.408554e-03) inserted so far.
   46000    24152  8.1576653e-05      0.0003402 
INFO: Particle insertion ins: inserted 5 particle templates (mass 5.235988e-05) at step 46001
 - a total of 235 particle templates (mass 2.460914e-03) inserted so far.
   47000    24157  8.6925734e-05      0.0003402 
INFO: Particle insertion ins: inserted 5 particle templates (mass 5.235988e-05) at step 47001
 - a total of 240 particle templates (mass 2.513274e-03) inserted so far.
   48000    24162  9.2542761e-05      0.0003402 
INFO: Particle insertion ins: inserted 5 particle templates (mass 5.235988e-05) at step 48001
 - a total of 245 particle templates (mass 2.565634e-03) inserted so far.
   49000    24167  9.8588762e-05      0.0003402 
INFO: Particle insertion ins: inserted 5 particle templates (mass 5.235988e-05) at step 49001
 - a total of 250 particle templates (mass 2.617994e-03) inserted so far.
   50000    24172  0.00010471739      0.0003402 
INFO: Particle insertion ins: inserted 5 particle templates (mass 5.235988e-05) at step 50001
 - a total of 255 particle templates (mass 2.670354e-03) inserted so far.
   51000    24177  0.00011076266      0.0003402 
INFO: Particle insertion ins: inserted 5 particle templates (mass 5.235988e-05) at step 51001
 - a total of 260 particle templates (mass 2.722714e-03) inserted so far.
   52000    24182  0.00011741527      0.0003402 
INFO: Particle insertion ins: inserted 5 particle templates (mass 5.235988e-05) at step 52001
 - a total of 265 particle templates (mass 2.775074e-03) inserted so far.
   53000    24187  0.00012429389      0.0003402 
INFO: Particle insertion ins: inserted 5 particle templates (mass 5.235988e-05) at step 53001
 - a total of 270 particle templates (mass 2.827433e-03) inserted so far.
   54000    24192  0.00013137141      0.0003402 
INFO: Particle insertion ins: inserted 5 particle templates (mass 5.235988e-05) at step 54001
 - a total of 275 particle templates (mass 2.879793e-03) inserted so far.
   55000    24197  0.00013827822      0.0003402 
INFO: Particle insertion ins: inserted 5 particle templates (mass 5.235988e-05) at step 55001
 - a total of 280 particle templates (mass 2.932153e-03) inserted so far.
   56000    24202  0.00014529627      0.0003402 
INFO: Particle insertion ins: inserted 5 particle templates (mass 5.235988e-05) at step 56001
 - a total of 285 particle templates (mass 2.984513e-03) inserted so far.
   57000    24207  0.00015266378      0.0003402 
INFO: Particle insertion ins: inserted 5 particle templates (mass 5.235988e-05) at step 57001
 - a total of 290 particle templates (mass 3.036873e-03) inserted so far.
   58000    24212  0.00016006738      0.0003402 
INFO: Particle insertion ins: inserted 5 particle templates (mass 5.235988e-05) at step 58001
 - a total of 295 particle templates (mass 3.089233e-03) inserted so far.
   59000    24217  0.00016798165      0.0003402 
INFO: Particle insertion ins: inserted 5 particle templates (mass 5.235988e-05) at step 59001
 - a total of 300 particle templates (mass 3.141593e-03) inserted so far.
   60000    24222  0.00017617955      0.0003402 
INFO: Particle insertion ins: inserted 5 particle templates (mass 5.235988e-05) at step 60001
 - a total of 305 particle templates (mass 3.193953e-03) inserted so far.
   61000    24227   0.0001843976      0.0003402 
INFO: Particle insertion ins: inserted 5 particle templates (mass 5.235988e-05) at step 61001
 - a total of 310 particle templates (mass 3.246312e-03) inserted so far.
   62000    24232  0.00019313879      0.0003402 
INFO: Particle insertion ins: inserted 5 particle templates (mass 5.235988e-05) at step 62001
 - a total of 315 particle templates (mass 3.298672e-03) inserted so far.
   63000    24237  0.00020282904      0.0003402 
INFO: Particle insertion ins: inserted 5 particle templates (mass 5.235988e-05) at step 63001
 - a total of 320 particle templates (mass 3.351032e-03) inserted so far.
   64000    24242  0.00021280782      0.0003402 
INFO: Particle insertion ins: inserted 5 particle templates (mass 5.235988e-05) at step 64001
 - a total of 325 particle templates (mass 3.403392e-03) inserted so far.
   65000    24247  0.00022299838      0.0003402 
INFO: Particle insertion ins: inserted 5 particle templates (mass 5.235988e-05) at step 65001
 - a total of 330 particle templates (mass 3.455752e-03) inserted so far.
   66000    24252  0.00023272756      0.0003402 
INFO: Particle insertion ins: inserted 5 particle templates (mass 5.235988e-05) at step 66001
 - a total of 335 particle templates (mass 3.508112e-03) inserted so far.
   67000    24257  0.00024293511      0.0003402 
INFO: Particle insertion ins: inserted 5 particle templates (mass 5.235988e-05) at step 67001
 - a total of 340 particle templates (mass 3.560472e-03) inserted so far.
   68000    24262  0.00025366293      0.0003402 
INFO: Particle insertion ins: inserted 5 particle templates (mass 5.235988e-05) at step 68001
 - a total of 345 particle templates (mass 3.612832e-03) inserted so far.
   69000    24267  0.00026472342      0.0003402 
INFO: Particle insertion ins: inserted 5 particle templates (mass 5.235988e-05) at step 69001
 - a total of 350 particle templates (mass 3.665191e-03) inserted so far.
   70000    24272  0.00027657139      0.0003402 
INFO: Particle insertion ins: inserted 5 particle templates (mass 5.235988e-05) at step 70001
 - a total of 355 particle templates (mass 3.717551e-03) inserted so far.
   71000    24277  0.00028868541      0.0003402 
INFO: Particle insertion ins: inserted 5 particle templates (mass 5.235988e-05) at step 71001
 - a total of 360 particle templates (mass 3.769911e-03) inserted so far.
   72000    24282  0.00030054717      0.0003402 
INFO: Particle insertion ins: inserted 5 particle templates (mass 5.235988e-05) at step 72001
 - a total of 365 particle templates (mass 3.822271e-03) inserted so far.
   73000    24287  0.00031325986      0.0003402 
INFO: Particle insertion ins: inserted 5 particle templates (mass 5.235988e-05) at step 73001
 - a total of 370 particle templates (mass 3.874631e-03) inserted so far.
   74000    24292  0.00032607261      0.0003402 
INFO: Particle insertion ins: inserted 5 particle templates (mass 5.235988e-05) at step 74001
 - a total of 375 particle templates (mass 3.926991e-03) inserted so far.
   75000    24297  0.00033891432      0.0003402 
INFO: Particle insertion ins: inserted 5 particle templates (mass 5.235988e-05) at step 75001
 - a total of 380 particle templates (mass 3.979351e-03) inserted so far.
   76000    24302  0.00035288879      0.0003402 
INFO: Particle insertion ins: inserted 5 particle templates (mass 5.235988e-05) at step 76001
 - a total of 385 particle templates (mass 4.031711e-03) inserted so far.
   77000    24307  0.00036698615      0.0003402 
INFO: Particle insertion ins: inserted 5 particle templates (mass 5.235988e-05) at step 77001
 - a total of 390 particle templates (mass 4.084070e-03) inserted so far.
   78000    24312  0.00038189909      0.0003402 
INFO: Particle insertion ins: inserted 5 particle templates (mass 5.235988e-05) at step 78001
 - a total of 395 particle templates (mass 4.136430e-03) inserted so far.
   79000    24317  0.00039709324      0.0003402 
INFO: Particle insertion ins: inserted 5 particle templates (mass 5.235988e-05) at step 79001
 - a total of 400 particle templates (mass 4.188790e-03) inserted so far.
   80000    24322  0.00041263819      0.0003402 
INFO: Particle insertion ins: inserted 5 particle templates (mass 5.235988e-05) at step 80001
 - a total of 405 particle templates (mass 4.241150e-03) inserted so far.
   81000    24327  0.00042816004      0.0003402 
INFO: Particle insertion ins: inserted 5 particle templates (mass 5.235988e-05) at step 81001
 - a total of 410 particle templates (mass 4.293510e-03) inserted so far.
   82000    24332  0.00044439618      0.0003402 
INFO: Particle insertion ins: inserted 5 particle templates (mass 5.235988e-05) at step 82001
 - a total of 415 particle templates (mass 4.345870e-03) inserted so far.
   83000    24337  0.00046126144      0.0003402 
INFO: Particle insertion ins: inserted 5 particle templates (mass 5.235988e-05) at step 83001
 - a total of 420 particle templates (mass 4.398230e-03) inserted so far.
   84000    24342   0.0004777829      0.0003402 
INFO: Particle insertion ins: inserted 5 particle templates (mass 5.235988e-05) at step 84001
 - a total of 425 particle templates (mass 4.450590e-03) inserted so far.
   85000    24347  0.00049443981      0.0003402 
INFO: Particle insertion ins: inserted 5 particle templates (mass 5.235988e-05) at step 85001
 - a total of 430 particle templates (mass 4.502949e-03) inserted so far.
   86000    24352  0.00051184648      0.0003402 
INFO: Particle insertion ins: inserted 5 particle templates (mass 5.235988e-05) at step 86001
 - a total of 435 particle templates (mass 4.555309e-03) inserted so far.
   87000    24357  0.00052902865      0.0003402 
INFO: Particle insertion ins: inserted 5 particle templates (mass 5.235988e-05) at step 87001
 - a total of 440 particle templates (mass 4.607669e-03) inserted so far.
   88000    24362   0.0005481167      0.0003402 
INFO: Particle insertion ins: inserted 5 particle templates (mass 5.235988e-05) at step 88001
 - a total of 445 particle templates (mass 4.660029e-03) inserted so far.
   89000    24367  0.00056653662      0.0003402 
INFO: Particle insertion ins: inserted 5 particle templates (mass 5.235988e-05) at step 89001
 - a total of 450 particle templates (mass 4.712389e-03) inserted so far.
   90000    24372  0.00058509944      0.0003402 
INFO: Particle insertion ins: inserted 5 particle templates (mass 5.235988e-05) at step 90001
 - a total of 455 particle templates (mass 4.764749e-03) inserted so far.
   91000    24377  0.00060479516      0.0003402 
INFO: Particle insertion ins: inserted 5 particle templates (mass 5.235988e-05) at step 91001
 - a total of 460 particle templates (mass 4.817109e-03) inserted so far.
   92000    24382  0.00062535499      0.0003402 
INFO: Particle insertion ins: inserted 5 particle templates (mass 5.235988e-05) at step 92001
 - a total of 465 particle templates (mass 4.869469e-03) inserted so far.
   93000    24387  0.00064502773      0.0003402 
INFO: Particle insertion ins: inserted 5 particle templates (mass 5.235988e-05) at step 93001
 - a total of 470 particle templates (mass 4.921828e-03) inserted so far.
   94000    24392  0.00066588543      0.0003402 
INFO: Particle insertion ins: inserted 5 particle templates (mass 5.235988e-05) at step 94001
 - a total of 475 particle templates (mass 4.974188e-03) inserted so far.
   95000    24397  0.00068732556      0.0003402 
INFO: Particle insertion ins: inserted 5 particle templates (mass 5.235988e-05) at step 95001
 - a total of 480 particle templates (mass 5.026548e-03) inserted so far.
   96000    24402  0.00070948326      0.0003402 
INFO: Particle insertion ins: inserted 5 particle templates (mass 5.235988e-05) at step 96001
 - a total of 485 particle templates (mass 5.078908e-03) inserted so far.
   97000    24407   0.0007320203      0.0003402 
INFO: Particle insertion ins: inserted 5 particle templates (mass 5.235988e-05) at step 97001
 - a total of 490 particle templates (mass 5.131268e-03) inserted so far.
   98000    24412  0.00075508533      0.0003402 
INFO: Particle insertion ins: inserted 5 particle templates (mass 5.235988e-05) at step 98001
 - a total of 495 particle templates (mass 5.183628e-03) inserted so far.
   99000    24417  0.00077913613      0.0003402 
INFO: Particle insertion ins: inserted 5 particle templates (mass 5.235988e-05) at step 99001
 - a total of 500 particle templates (mass 5.235988e-03) inserted so far.
  100000    24422  0.00080362793      0.0003402 
INFO: Particle insertion ins: inserted 5 particle templates (mass 5.235988e-05) at step 100001
 - a total of 505 particle templates (mass 5.288348e-03) inserted so far.
  101000    24427   0.0008280327      0.0003402 
INFO: Particle insertion ins: inserted 5 particle templates (mass 5.235988e-05) at step 101001
 - a total of 510 particle templates (mass 5.340708e-03) inserted so far.
  102000    24432   0.0008518758      0.0003402 
INFO: Particle insertion ins: inserted 5 particle templates (mass 5.235988e-05) at step 102001
 - a total of 515 particle templates (mass 5.393067e-03) inserted so far.
  103000    24437  0.00087783942      0.0003402 
INFO: Particle insertion ins: inserted 5 particle templates (mass 5.235988e-05) at step 103001
 - a total of 520 particle templates (mass 5.445427e-03) inserted so far.
  104000    24442  0.00090324435      0.0003402 
INFO: Particle insertion ins: inserted 5 particle templates (mass 5.235988e-05) at step 104001
 - a total of 525 particle templates (mass 5.497787e-03) inserted so far.
  105000    24447  0.00092918883      0.0003402 
INFO: Particle insertion ins: inserted 5 particle templates (mass 5.235988e-05) at step 105001
 - a total of 530 particle templates (mass 5.550147e-03) inserted so far.
  106000    24452  0.00095634694      0.0003402 
INFO: Particle insertion ins: inserted 5 particle templates (mass 5.235988e-05) at step 106001
 - a total of 535 particle templates (mass 5.602507e-03) inserted so far.
  107000    24457  0.00098367095      0.0003402 
INFO: Particle insertion ins: inserted 5 particle templates (mass 5.235988e-05) at step 107001
 - a total of 540 particle templates (mass 5.654867e-03) inserted so far.
  108000    24462   0.0010117541      0.0003402 
INFO: Particle insertion ins: inserted 5 particle templates (mass 5.235988e-05) at step 108001
 - a total of 545 particle templates (mass 5.707227e-03) inserted so far.
  109000    24467   0.0010407286      0.0003402 
INFO: Particle insertion ins: inserted 5 particle templates (mass 5.235988e-05) at step 109001
 - a total of 550 particle templates (mass 5.759587e-03) inserted so far.
  110000    24472   0.0010698628      0.0003402 
INFO: Particle insertion ins: inserted 5 particle templates (mass 5.235988e-05) at step 110001
 - a total of 555 particle templates (mass 5.811946e-03) inserted so far.
  111000    24477   0.0011003669      0.0003402 
INFO: Particle insertion ins: inserted 5 particle templates (mass 5.235988e-05) at step 111001
 - a total of 560 particle templates (mass 5.864306e-03) inserted so far.
  112000    24482   0.0011159827      0.0003402 
INFO: Particle insertion ins: inserted 5 particle templates (mass 5.235988e-05) at step 112001
 - a total of 565 particle templates (mass 5.916666e-03) inserted so far.
  113000    24487   0.0011468311      0.0003402 
INFO: Particle insertion ins: inserted 5 particle templates (mass 5.235988e-05) at step 113001
 - a total of 570 particle templates (mass 5.969026e-03) inserted so far.
  114000    24492   0.0011725222      0.0003402 
INFO: Particle insertion ins: inserted 5 particle templates (mass 5.235988e-05) at step 114001
 - a total of 575 particle templates (mass 6.021386e-03) inserted so far.
  115000    24497   0.0011999819      0.0003402 
INFO: Particle insertion ins: inserted 5 particle templates (mass 5.235988e-05) at step 115001
 - a total of 580 particle templates (mass 6.073746e-03) inserted so far.
  116000    24502      0.0012264      0.0003402 
INFO: Particle insertion ins: inserted 5 particle templates (mass 5.235988e-05) at step 116001
 - a total of 585 particle templates (mass 6.126106e-03) inserted so far.
  117000    24507   0.0012384835      0.0003402 
INFO: Particle insertion ins: inserted 5 particle templates (mass 5.235988e-05) at step 117001
 - a total of 590 particle templates (mass 6.178466e-03) inserted so far.
  118000    24512   0.0012657992      0.0003402 
INFO: Particle insertion ins: inserted 5 particle templates (mass 5.235988e-05) at step 118001
 - a total of 595 particle templates (mass 6.230825e-03) inserted so far.
  119000    24517   0.0012937043      0.0003402 
INFO: Particle insertion ins: inserted 5 particle templates (mass 5.235988e-05) at step 119001
 - a total of 600 particle templates (mass 6.283185e-03) inserted so far.
  120000    24522   0.0013279272      0.0003402 
INFO: Particle insertion ins: inserted 5 particle templates (mass 5.235988e-05) at step 120001
 - a total of 605 particle templates (mass 6.335545e-03) inserted so far.
  121000    24527   0.0013473275      0.0003402 
INFO: Particle insertion ins: inserted 5 particle templates (mass 5.235988e-05) at step 121001
 - a total of 610 particle templates (mass 6.387905e-03) inserted so far.
  122000    24532   0.0013685502      0.0003402 
INFO: Particle insertion ins: inserted 5 particle templates (mass 5.235988e-05) at step 122001
 - a total of 615 particle templates (mass 6.440265e-03) inserted so far.
  123000    24537   0.0013867663      0.0003402 
INFO: Particle insertion ins: inserted 5 particle templates (mass 5.235988e-05) at step 123001
 - a total of 620 particle templates (mass 6.492625e-03) inserted so far.
  124000    24542   0.0013926182      0.0003402 
INFO: Particle insertion ins: inserted 5 particle templates (mass 5.235988e-05) at step 124001
 - a total of 625 particle templates (mass 6.544985e-03) inserted so far.
  125000    24547   0.0014122011      0.0003402 
INFO: Particle insertion ins: inserted 5 particle templates (mass 5.235988e-05) at step 125001
 - a total of 630 particle templates (mass 6.597345e-03) inserted so far.
  126000    24552   0.0014263215      0.0003402 
INFO: Particle insertion ins: inserted 5 particle templates (mass 5.235988e-05) at step 126001
 - a total of 635 particle templates (mass 6.649704e-03) inserted so far.
  127000    24557    0.001433161      0.0003402 
INFO: Particle insertion ins: inserted 5 particle templates (mass 5.235988e-05) at step 127001
 - a total of 640 particle templates (mass 6.702064e-03) inserted so far.
  128000    24562   0.0014430255      0.0003402 
INFO: Particle insertion ins: inserted 5 particle templates (mass 5.235988e-05) at step 128001
 - a total of 645 particle templates (mass 6.754424e-03) inserted so far.
  129000    24567   0.0014508635      0.0003402 
INFO: Particle insertion ins: inserted 5 particle templates (mass 5.235988e-05) at step 129001
 - a total of 650 particle templates (mass 6.806784e-03) inserted so far.
  130000    24572   0.0014601087      0.0003402 
INFO: Particle insertion ins: inserted 5 particle templates (mass 5.235988e-05) at step 130001
 - a total of 655 particle templates (mass 6.859144e-03) inserted so far.
  131000    24577   0.0014734618      0.0003402 
INFO: Particle insertion ins: inserted 5 particle templates (mass 5.235988e-05) at step 131001
 - a total of 660 particle templates (mass 6.911504e-03) inserted so far.
  132000    24582   0.0015007136      0.0003402 
INFO: Particle insertion ins: inserted 5 particle templates (mass 5.235988e-05) at step 132001
 - a total of 665 particle templates (mass 6.963864e-03) inserted so far.
  133000    24587   0.0015218817      0.0003402 
INFO: Particle insertion ins: inserted 5 particle templates (mass 5.235988e-05) at step 133001
 - a total of 670 particle templates (mass 7.016224e-03) inserted so far.
  134000    24592   0.0015212538      0.0003402 
INFO: Particle insertion ins: inserted 5 particle templates (mass 5.235988e-05) at step 134001
 - a total of 675 particle templates (mass 7.068583e-03) inserted so far.
  135000    24597   0.0015080472      0.0003402 
INFO: Particle insertion ins: inserted 5 particle templates (mass 5.235988e-05) at step 135001
 - a total of 680 particle templates (mass 7.120943e-03) inserted so far.
  136000    24602   0.0015025693      0.0003402 
INFO: Particle insertion ins: inserted 5 particle templates (mass 5.235988e-05) at step 136001
 - a total of 685 particle templates (mass 7.173303e-03) inserted so far.
  137000    24607     0.00148904      0.0003402 
INFO: Particle insertion ins: inserted 5 particle templates (mass 5.235988e-05) at step 137001
 - a total of 690 particle templates (mass 7.225663e-03) inserted so far.
  138000    24612   0.0014842382      0.0003402 
INFO: Particle insertion ins: inserted 5 particle templates (mass 5.235988e-05) at step 138001
 - a total of 695 particle templates (mass 7.278023e-03) inserted so far.
  139000    24617   0.0014701662      0.0003402 
INFO: Particle insertion ins: inserted 5 particle templates (mass 5.235988e-05) at step 139001
 - a total of 700 particle templates (mass 7.330383e-03) inserted so far.
  140000    24622   0.0014609579      0.0003402 
INFO: Particle insertion ins: inserted 5 particle templates (mass 5.235988e-05) at step 140001
 - a total of 705 particle templates (mass 7.382743e-03) inserted so far.
  141000    24627   0.0014407292      0.0003402 
INFO: Particle insertion ins: inserted 5 particle templates (mass 5.235988e-05) at step 141001
 - a total of 710 particle templates (mass 7.435103e-03) inserted so far.
  142000    24632   0.0014078417      0.0003402 
INFO: Particle insertion ins: inserted 5 particle templates (mass 5.235988e-05) at step 142001
 - a total of 715 particle templates (mass 7.487462e-03) inserted so far.
  143000    24637   0.0014027206      0.0003402 
INFO: Particle insertion ins: inserted 5 particle templates (mass 5.235988e-05) at step 143001
 - a total of 720 particle templates (mass 7.539822e-03) inserted so far.
  144000    24642   0.0013893187      0.0003402 
INFO: Particle insertion ins: inserted 5 particle templates (mass 5.235988e-05) at step 144001
 - a total of 725 particle templates (mass 7.592182e-03) inserted so far.
  145000    24647   0.0013859392      0.0003402 
INFO: Particle insertion ins: inserted 5 particle templates (mass 5.235988e-05) at step 145001
 - a total of 730 particle templates (mass 7.644542e-03) inserted so far.
  146000    24652   0.0013755462      0.0003402 
INFO: Particle insertion ins: inserted 5 particle templates (mass 5.235988e-05) at step 146001
 - a total of 735 particle templates (mass 7.696902e-03) inserted so far.
  147000    24657   0.0013828852      0.0003402 
INFO: Particle insertion ins: inserted 5 particle templates (mass 5.235988e-05) at step 147001
 - a total of 740 particle templates (mass 7.749262e-03) inserted so far.
  148000    24662   0.0013778366      0.0003402 
INFO: Particle insertion ins: inserted 5 particle templates (mass 5.235988e-05) at step 148001
 - a total of 745 particle templates (mass 7.801622e-03) inserted so far.
  149000    24667   0.0013681809      0.0003402 
INFO: Particle insertion ins: inserted 5 particle templates (mass 5.235988e-05) at step 149001
 - a total of 750 particle templates (mass 7.853982e-03) inserted so far.
  150000    24672   0.0013827354      0.0003402 
INFO: Particle insertion ins: inserted 5 particle templates (mass 5.235988e-05) at step 150001
 - a total of 755 particle templates (mass 7.906342e-03) inserted so far.
  151000    24677   0.0014061127      0.0003402 
INFO: Particle insertion ins: inserted 5 particle templates (mass 5.235988e-05) at step 151001
 - a total of 760 particle templates (mass 7.958701e-03) inserted so far.
  152000    24682    0.001414792      0.0003402 
INFO: Particle insertion ins: inserted 5 particle templates (mass 5.235988e-05) at step 152001
 - a total of 765 particle templates (mass 8.011061e-03) inserted so far.
  153000    24687    0.001410495      0.0003402 
INFO: Particle insertion ins: inserted 5 particle templates (mass 5.235988e-05) at step 153001
 - a total of 770 particle templates (mass 8.063421e-03) inserted so far.
  154000    24692   0.0014161058      0.0003402 
INFO: Particle insertion ins: inserted 5 particle templates (mass 5.235988e-05) at step 154001
 - a total of 775 particle templates (mass 8.115781e-03) inserted so far.
  155000    24697   0.0013827134      0.0003402 
INFO: Particle insertion ins: inserted 5 particle templates (mass 5.235988e-05) at step 155001
 - a total of 780 particle templates (mass 8.168141e-03) inserted so far.
  156000    24702   0.0013587983      0.0003402 
INFO: Particle insertion ins: inserted 5 particle templates (mass 5.235988e-05) at step 156001
 - a total of 785 particle templates (mass 8.220501e-03) inserted so far.
  157000    24707   0.0013723709      0.0003402 
INFO: Particle insertion ins: inserted 5 particle templates (mass 5.235988e-05) at step 157001
 - a total of 790 particle templates (mass 8.272861e-03) inserted so far.
  158000    24712   0.0013787974      0.0003402 
INFO: Particle insertion ins: inserted 5 particle templates (mass 5.235988e-05) at step 158001
 - a total of 795 particle templates (mass 8.325221e-03) inserted so far.
  159000    24717   0.0013765925      0.0003402 
INFO: Particle insertion ins: inserted 5 particle templates (mass 5.235988e-05) at step 159001
 - a total of 800 particle templates (mass 8.377580e-03) inserted so far.
  160000    24722    0.001391052      0.0003402 
INFO: Particle insertion ins: inserted 5 particle templates (mass 5.235988e-05) at step 160001
 - a total of 805 particle templates (mass 8.429940e-03) inserted so far.
  161000    24727   0.0013922836      0.0003402 
INFO: Particle insertion ins: inserted 5 particle templates (mass 5.235988e-05) at step 161001
 - a total of 810 particle templates (mass 8.482300e-03) inserted so far.
  162000    24732   0.0013928992      0.0003402 
INFO: Particle insertion ins: inserted 5 particle templates (mass 5.235988e-05) at step 162001
 - a total of 815 particle templates (mass 8.534660e-03) inserted so far.
  163000    24737   0.0013750897      0.0003402 
INFO: Particle insertion ins: inserted 5 particle templates (mass 5.235988e-05) at step 163001
 - a total of 820 particle templates (mass 8.587020e-03) inserted so far.
  164000    24742   0.0013754713      0.0003402 
INFO: Particle insertion ins: inserted 5 particle templates (mass 5.235988e-05) at step 164001
 - a total of 825 particle templates (mass 8.639380e-03) inserted so far.
  165000    24747   0.0013558951      0.0003402 
INFO: Particle insertion ins: inserted 5 particle templates (mass 5.235988e-05) at step 165001
 - a total of 830 particle templates (mass 8.691740e-03) inserted so far.
  166000    24752   0.0013417552      0.0003402 
INFO: Particle insertion ins: inserted 5 particle templates (mass 5.235988e-05) at step 166001
 - a total of 835 particle templates (mass 8.744100e-03) inserted so far.
  167000    24757   0.0013346483      0.0003402 
INFO: Particle insertion ins: inserted 5 particle templates (mass 5.235988e-05) at step 167001
 - a total of 840 particle templates (mass 8.796459e-03) inserted so far.
  168000    24762   0.0013384895      0.0003402 
INFO: Particle insertion ins: inserted 5 particle templates (mass 5.235988e-05) at step 168001
 - a total of 845 particle templates (mass 8.848819e-03) inserted so far.
  169000    24767    0.001349584      0.0003402 
INFO: Particle insertion ins: inserted 5 particle templates (mass 5.235988e-05) at step 169001
 - a total of 850 particle templates (mass 8.901179e-03) inserted so far.
  170000    24772     0.00133327      0.0003402 
INFO: Particle insertion ins: inserted 5 particle templates (mass 5.235988e-05) at step 170001
 - a total of 855 particle templates (mass 8.953539e-03) inserted so far.
  171000    24777   0.0013211606      0.0003402 
INFO: Particle insertion ins: inserted 5 particle templates (mass 5.235988e-05) at step 171001
 - a total of 860 particle templates (mass 9.005899e-03) inserted so far.
  172000    24782   0.0013193971      0.0003402 
INFO: Particle insertion ins: inserted 5 particle templates (mass 5.235988e-05) at step 172001
 - a total of 865 particle templates (mass 9.058259e-03) inserted so far.
  173000    24787   0.0013098292      0.0003402 
INFO: Particle insertion ins: inserted 5 particle templates (mass 5.235988e-05) at step 173001
 - a total of 870 particle templates (mass 9.110619e-03) inserted so far.
  174000    24792   0.0013236599      0.0003402 
INFO: Particle insertion ins: inserted 5 particle templates (mass 5.235988e-05) at step 174001
 - a total of 875 particle templates (mass 9.162979e-03) inserted so far.
  175000    24797   0.0013154042      0.0003402 
INFO: Particle insertion ins: inserted 5 particle templates (mass 5.235988e-05) at step 175001
 - a total of 880 particle templates (mass 9.215338e-03) inserted so far.
  176000    24802   0.0013095792      0.0003402 
INFO: Particle insertion ins: inserted 5 particle templates (mass 5.235988e-05) at step 176001
 - a total of 885 particle templates (mass 9.267698e-03) inserted so far.
  177000    24807   0.0013163158      0.0003402 
INFO: Particle insertion ins: inserted 5 particle templates (mass 5.235988e-05) at step 177001
 - a total of 890 particle templates (mass 9.320058e-03) inserted so far.
  178000    24812     0.00131432      0.0003402 
INFO: Particle insertion ins: inserted 5 particle templates (mass 5.235988e-05) at step 178001
 - a total of 895 particle templates (mass 9.372418e-03) inserted so far.
  179000    24817    0.001313455      0.0003402 
INFO: Particle insertion ins: inserted 5 particle templates (mass 5.235988e-05) at step 179001
 - a total of 900 particle templates (mass 9.424778e-03) inserted so far.
  180000    24822   0.0013132788      0.0003402 
INFO: Particle insertion ins: inserted 5 particle templates (mass 5.235988e-05) at step 180001
 - a total of 905 particle templates (mass 9.477138e-03) inserted so far.
  181000    24827   0.0013168292      0.0003402 
INFO: Particle insertion ins: inserted 5 particle templates (mass 5.235988e-05) at step 181001
 - a total of 910 particle templates (mass 9.529498e-03) inserted so far.
  182000    24832   0.0013177576      0.0003402 
INFO: Particle insertion ins: inserted 5 particle templates (mass 5.235988e-05) at step 182001
 - a total of 915 particle templates (mass 9.581858e-03) inserted so far.
  183000    24837   0.0013301309      0.0003402 
INFO: Particle insertion ins: inserted 5 particle templates (mass 5.235988e-05) at step 183001
 - a total of 920 particle templates (mass 9.634217e-03) inserted so far.
  184000    24842   0.0013352431      0.0003402 
INFO: Particle insertion ins: inserted 5 particle templates (mass 5.235988e-05) at step 184001
 - a total of 925 particle templates (mass 9.686577e-03) inserted so far.
  185000    24847   0.0013511592      0.0003402 
INFO: Particle insertion ins: inserted 5 particle templates (mass 5.235988e-05) at step 185001
 - a total of 930 particle templates (mass 9.738937e-03) inserted so far.
  186000    24852   0.0013491259      0.0003402 
INFO: Particle insertion ins: inserted 5 particle templates (mass 5.235988e-05) at step 186001
 - a total of 935 particle templates (mass 9.791297e-03) inserted so far.
  187000    24857   0.0013642789      0.0003402 
INFO: Particle insertion ins: inserted 5 particle templates (mass 5.235988e-05) at step 187001
 - a total of 940 particle templates (mass 9.843657e-03) inserted so far.
  188000    24862   0.0013673019      0.0003402 
INFO: Particle insertion ins: inserted 5 particle templates (mass 5.235988e-05) at step 188001
 - a total of 945 particle templates (mass 9.896017e-03) inserted so far.
  189000    24867   0.0013670275      0.0003402 
INFO: Particle insertion ins: inserted 5 particle templates (mass 5.235988e-05) at step 189001
 - a total of 950 particle templates (mass 9.948377e-03) inserted so far.
  190000    24872   0.0013579952      0.0003402 
INFO: Particle insertion ins: inserted 5 particle templates (mass 5.235988e-05) at step 190001
 - a total of 955 particle templates (mass 1.000074e-02) inserted so far.
  191000    24877   0.0013643782      0.0003402 
INFO: Particle insertion ins: inserted 5 particle templates (mass 5.235988e-05) at step 191001
 - a total of 960 particle templates (mass 1.005310e-02) inserted so far.
  192000    24882   0.0013679341      0.0003402 
INFO: Particle insertion ins: inserted 5 particle templates (mass 5.235988e-05) at step 192001
 - a total of 965 particle templates (mass 1.010546e-02) inserted so far.
  193000    24887   0.0013711075      0.0003402 
INFO: Particle insertion ins: inserted 5 particle templates (mass 5.235988e-05) at step 193001
 - a total of 970 particle templates (mass 1.015782e-02) inserted so far.
  194000    24892   0.0013582087      0.0003402 
INFO: Particle insertion ins: inserted 5 particle templates (mass 5.235988e-05) at step 194001
 - a total of 975 particle templates (mass 1.021018e-02) inserted so far.
  195000    24897   0.0013427286      0.0003402 
INFO: Particle insertion ins: inserted 5 particle templates (mass 5.235988e-05) at step 195001
 - a total of 980 particle templates (mass 1.026254e-02) inserted so far.
  196000    24902   0.0013284035      0.0003402 
INFO: Particle insertion ins: inserted 5 particle templates (mass 5.235988e-05) at step 196001
 - a total of 985 particle templates (mass 1.031490e-02) inserted so far.
  197000    24907   0.0013187784      0.0003402 
INFO: Particle insertion ins: inserted 5 particle templates (mass 5.235988e-05) at step 197001
 - a total of 990 particle templates (mass 1.036726e-02) inserted so far.
  198000    24912     0.00130304      0.0003402 
INFO: Particle insertion ins: inserted 5 particle templates (mass 5.235988e-05) at step 198001
 - a total of 995 particle templates (mass 1.041962e-02) inserted so far.
  199000    24917   0.0012768365      0.0003402 
INFO: Particle insertion ins: inserted 5 particle templates (mass 5.235988e-05) at step 199001
 - a total of 1000 particle templates (mass 1.047198e-02) inserted so far.
  200000    24922   0.0012658353      0.0003402 
INFO: Particle insertion ins: inserted 5 particle templates (mass 5.235988e-05) at step 200001
 - a total of 1005 particle templates (mass 1.052434e-02) inserted so far.
  201000    24927   0.0012713269      0.0003402 
INFO: Particle insertion ins: inserted 5 particle templates (mass 5.235988e-05) at step 201001
 - a total of 1010 particle templates (mass 1.057670e-02) inserted so far.
  202000    24932   0.0012618869      0.0003402 
INFO: Particle insertion ins: inserted 5 particle templates (mass 5.235988e-05) at step 202001
 - a total of 1015 particle templates (mass 1.062906e-02) inserted so far.
  203000    24937   0.0012601893      0.0003402 
INFO: Particle insertion ins: inserted 5 particle templates (mass 5.235988e-05) at step 203001
 - a total of 1020 particle templates (mass 1.068142e-02) inserted so far.
  204000    24942    0.001226551      0.0003402 
INFO: Particle insertion ins: inserted 5 particle templates (mass 5.235988e-05) at step 204001
 - a total of 1025 particle templates (mass 1.073377e-02) inserted so far.
  205000    24947   0.0012073931      0.0003402 
INFO: Particle insertion ins: inserted 5 particle templates (mass 5.235988e-05) at step 205001
 - a total of 1030 particle templates (mass 1.078613e-02) inserted so far.
  206000    24952   0.0011888752      0.0003402 
INFO: Particle insertion ins: inserted 5 particle templates (mass 5.235988e-05) at step 206001
 - a total of 1035 particle templates (mass 1.083849e-02) inserted so far.
  207000    24957   0.0011840973      0.0003402 
INFO: Particle insertion ins: inserted 5 particle templates (mass 5.235988e-05) at step 207001
 - a total of 1040 particle templates (mass 1.089085e-02) inserted so far.
  208000    24962   0.0011853426      0.0003402 
INFO: Particle insertion ins: inserted 5 particle templates (mass 5.235988e-05) at step 208001
 - a total of 1045 particle templates (mass 1.094321e-02) inserted so far.
  209000    24967   0.0012003165      0.0003402 
INFO: Particle insertion ins: inserted 5 particle templates (mass 5.235988e-05) at step 209001
 - a total of 1050 particle templates (mass 1.099557e-02) inserted so far.
  210000    24972   0.0012017292      0.0003402 
INFO: Particle insertion ins: inserted 5 particle templates (mass 5.235988e-05) at step 210001
 - a total of 1055 particle templates (mass 1.104793e-02) inserted so far.
  211000    24977   0.0012182153      0.0003402 
INFO: Particle insertion ins: inserted 5 particle templates (mass 5.235988e-05) at step 211001
 - a total of 1060 particle templates (mass 1.110029e-02) inserted so far.
  212000    24982   0.0012106441      0.0003402 
INFO: Particle insertion ins: inserted 5 particle templates (mass 5.235988e-05) at step 212001
 - a total of 1065 particle templates (mass 1.115265e-02) inserted so far.
  213000    24987   0.0012264133      0.0003402 
INFO: Particle insertion ins: inserted 5 particle templates (mass 5.235988e-05) at step 213001
 - a total of 1070 particle templates (mass 1.120501e-02) inserted so far.
  214000    24992   0.0012337569      0.0003402 
INFO: Particle insertion ins: inserted 5 particle templates (mass 5.235988e-05) at step 214001
 - a total of 1075 particle templates (mass 1.125737e-02) inserted so far.
  215000    24997   0.0012407177      0.0003402 
INFO: Particle insertion ins: inserted 5 particle templates (mass 5.235988e-05) at step 215001
 - a total of 1080 particle templates (mass 1.130973e-02) inserted so far.
  216000    25002   0.0012519695      0.0003402 
INFO: Particle insertion ins: inserted 5 particle templates (mass 5.235988e-05) at step 216001
 - a total of 1085 particle templates (mass 1.136209e-02) inserted so far.
  217000    25007   0.0012569252      0.0003402 
INFO: Particle insertion ins: inserted 5 particle templates (mass 5.235988e-05) at step 217001
 - a total of 1090 particle templates (mass 1.141445e-02) inserted so far.
  218000    25012   0.0012514899      0.0003402 
INFO: Particle insertion ins: inserted 5 particle templates (mass 5.235988e-05) at step 218001
 - a total of 1095 particle templates (mass 1.146681e-02) inserted so far.
  219000    25017   0.0012470094      0.0003402 
INFO: Particle insertion ins: inserted 5 particle templates (mass 5.235988e-05) at step 219001
 - a total of 1100 particle templates (mass 1.151917e-02) inserted so far.
  220000    25022   0.0012205759      0.0003402 
INFO: Particle insertion ins: inserted 5 particle templates (mass 5.235988e-05) at step 220001
 - a total of 1105 particle templates (mass 1.157153e-02) inserted so far.
  221000    25027   0.0012017276      0.0003402 
INFO: Particle insertion ins: inserted 5 particle templates (mass 5.235988e-05) at step 221001
 - a total of 1110 particle templates (mass 1.162389e-02) inserted so far.
  222000    25032   0.0011937345      0.0003402 
INFO: Particle insertion ins: inserted 5 particle templates (mass 5.235988e-05) at step 222001
 - a total of 1115 particle templates (mass 1.167625e-02) inserted so far.
  223000    25037   0.0011917796      0.0003402 
INFO: Particle insertion ins: inserted 5 particle templates (mass 5.235988e-05) at step 223001
 - a total of 1120 particle templates (mass 1.172861e-02) inserted so far.
  224000    25042    0.001188042      0.0003402 
INFO: Particle insertion ins: inserted 5 particle templates (mass 5.235988e-05) at step 224001
 - a total of 1125 particle templates (mass 1.178097e-02) inserted so far.
  225000    25047   0.0012044951      0.0003402 
INFO: Particle insertion ins: inserted 5 particle templates (mass 5.235988e-05) at step 225001
 - a total of 1130 particle templates (mass 1.183333e-02) inserted so far.
  226000    25052   0.0011948312      0.0003402 
INFO: Particle insertion ins: inserted 5 particle templates (mass 5.235988e-05) at step 226001
 - a total of 1135 particle templates (mass 1.188569e-02) inserted so far.
  227000    25057   0.0012093206      0.0003402 
INFO: Particle insertion ins: inserted 5 particle templates (mass 5.235988e-05) at step 227001
 - a total of 1140 particle templates (mass 1.193805e-02) inserted so far.
  228000    25062   0.0012217419      0.0003402 
INFO: Particle insertion ins: inserted 5 particle templates (mass 5.235988e-05) at step 228001
 - a total of 1145 particle templates (mass 1.199041e-02) inserted so far.
  229000    25067   0.0012360539      0.0003402 
INFO: Particle insertion ins: inserted 5 particle templates (mass 5.235988e-05) at step 229001
 - a total of 1150 particle templates (mass 1.204277e-02) inserted so far.
  230000    25072   0.0012445065      0.0003402 
INFO: Particle insertion ins: inserted 5 particle templates (mass 5.235988e-05) at step 230001
 - a total of 1155 particle templates (mass 1.209513e-02) inserted so far.
  231000    25077   0.0012474508      0.0003402 
INFO: Particle insertion ins: inserted 5 particle templates (mass 5.235988e-05) at step 231001
 - a total of 1160 particle templates (mass 1.214749e-02) inserted so far.
  232000    25082   0.0012575701      0.0003402 
INFO: Particle insertion ins: inserted 5 particle templates (mass 5.235988e-05) at step 232001
 - a total of 1165 particle templates (mass 1.219985e-02) inserted so far.
  233000    25087    0.001273325      0.0003402 
INFO: Particle insertion ins: inserted 5 particle templates (mass 5.235988e-05) at step 233001
 - a total of 1170 particle templates (mass 1.225221e-02) inserted so far.
  234000    25092   0.0012758429      0.0003402 
INFO: Particle insertion ins: inserted 5 particle templates (mass 5.235988e-05) at step 234001
 - a total of 1175 particle templates (mass 1.230457e-02) inserted so far.
  235000    25097   0.0012909426      0.0003402 
INFO: Particle insertion ins: inserted 5 particle templates (mass 5.235988e-05) at step 235001
 - a total of 1180 particle templates (mass 1.235693e-02) inserted so far.
  236000    25102   0.0012972035      0.0003402 
INFO: Particle insertion ins: inserted 5 particle templates (mass 5.235988e-05) at step 236001
 - a total of 1185 particle templates (mass 1.240929e-02) inserted so far.
  237000    25107   0.0012994502      0.0003402 
INFO: Particle insertion ins: inserted 5 particle templates (mass 5.235988e-05) at step 237001
 - a total of 1190 particle templates (mass 1.246165e-02) inserted so far.
  238000    25112    0.001318945      0.0003402 
INFO: Particle insertion ins: inserted 5 particle templates (mass 5.235988e-05) at step 238001
 - a total of 1195 particle templates (mass 1.251401e-02) inserted so far.
  239000    25117   0.0013252764      0.0003402 
INFO: Particle insertion ins: inserted 5 particle templates (mass 5.235988e-05) at step 239001
 - a total of 1200 particle templates (mass 1.256637e-02) inserted so far.
  240000    25122    0.001300769      0.0003402 
INFO: Particle insertion ins: inserted 5 particle templates (mass 5.235988e-05) at step 240001
 - a total of 1205 particle templates (mass 1.261873e-02) inserted so far.
  241000    25127   0.0012823347      0.0003402 
INFO: Particle insertion ins: inserted 5 particle templates (mass 5.235988e-05) at step 241001
 - a total of 1210 particle templates (mass 1.267109e-02) inserted so far.
  242000    25132   0.0012465104      0.0003402 
INFO: Particle insertion ins: inserted 5 particle templates (mass 5.235988e-05) at step 242001
 - a total of 1215 particle templates (mass 1.272345e-02) inserted so far.
  243000    25137   0.0012493462      0.0003402 
INFO: Particle insertion ins: inserted 5 particle templates (mass 5.235988e-05) at step 243001
 - a total of 1220 particle templates (mass 1.277581e-02) inserted so far.
  244000    25142   0.0012269259      0.0003402 
INFO: Particle insertion ins: inserted 5 particle templates (mass 5.235988e-05) at step 244001
 - a total of 1225 particle templates (mass 1.282817e-02) inserted so far.
  245000    25147   0.0012035626      0.0003402 
INFO: Particle insertion ins: inserted 5 particle templates (mass 5.235988e-05) at step 245001
 - a total of 1230 particle templates (mass 1.288053e-02) inserted so far.
  246000    25152    0.001188394      0.0003402 
INFO: Particle insertion ins: inserted 5 particle templates (mass 5.235988e-05) at step 246001
 - a total of 1235 particle templates (mass 1.293289e-02) inserted so far.
  247000    25157   0.0011793253      0.0003402 
INFO: Particle insertion ins: inserted 5 particle templates (mass 5.235988e-05) at step 247001
 - a total of 1240 particle templates (mass 1.298525e-02) inserted so far.
  248000    25162   0.0011912313      0.0003402 
INFO: Particle insertion ins: inserted 5 particle templates (mass 5.235988e-05) at step 248001
 - a total of 1245 particle templates (mass 1.303761e-02) inserted so far.
  249000    25167    0.001166001      0.0003402 
INFO: Particle insertion ins: inserted 5 particle templates (mass 5.235988e-05) at step 249001
 - a total of 1250 particle templates (mass 1.308997e-02) inserted so far.
  250000    25172   0.0011672847      0.0003402 
INFO: Particle insertion ins: inserted 5 particle templates (mass 5.235988e-05) at step 250001
 - a total of 1255 particle templates (mass 1.314233e-02) inserted so far.
  251000    25177   0.0011782869      0.0003402 
INFO: Particle insertion ins: inserted 5 particle templates (mass 5.235988e-05) at step 251001
 - a total of 1260 particle templates (mass 1.319469e-02) inserted so far.
  252000    25182   0.0011890414      0.0003402 
INFO: Particle insertion ins: inserted 5 particle templates (mass 5.235988e-05) at step 252001
 - a total of 1265 particle templates (mass 1.324705e-02) inserted so far.
  253000    25187   0.0012065845      0.0003402 
INFO: Particle insertion ins: inserted 5 particle templates (mass 5.235988e-05) at step 253001
 - a total of 1270 particle templates (mass 1.329941e-02) inserted so far.
  254000    25192   0.0012194217      0.0003402 
INFO: Particle insertion ins: inserted 5 particle templates (mass 5.235988e-05) at step 254001
 - a total of 1275 particle templates (mass 1.335177e-02) inserted so far.
  255000    25197   0.0012362648      0.0003402 
INFO: Particle insertion ins: inserted 5 particle templates (mass 5.235988e-05) at step 255001
 - a total of 1280 particle templates (mass 1.340413e-02) inserted so far.
  256000    25202   0.0012311862      0.0003402 
INFO: Particle insertion ins: inserted 5 particle templates (mass 5.235988e-05) at step 256001
 - a total of 1285 particle templates (mass 1.345649e-02) inserted so far.
  257000    25207   0.0012166379      0.0003402 
INFO: Particle insertion ins: inserted 5 particle templates (mass 5.235988e-05) at step 257001
 - a total of 1290 particle templates (mass 1.350885e-02) inserted so far.
  258000    25212   0.0012197592      0.0003402 
INFO: Particle insertion ins: inserted 5 particle templates (mass 5.235988e-05) at step 258001
 - a total of 1295 particle templates (mass 1.356121e-02) inserted so far.
  259000    25217   0.0012018526      0.0003402 
INFO: Particle insertion ins: inserted 5 particle templates (mass 5.235988e-05) at step 259001
 - a total of 1300 particle templates (mass 1.361357e-02) inserted so far.
  260000    25222   0.0012040335      0.0003402 
INFO: Particle insertion ins: inserted 5 particle templates (mass 5.235988e-05) at step 260001
 - a total of 1305 particle templates (mass 1.366593e-02) inserted so far.
  261000    25227   0.0011963127      0.0003402 
INFO: Particle insertion ins: inserted 5 particle templates (mass 5.235988e-05) at step 261001
 - a total of 1310 particle templates (mass 1.371829e-02) inserted so far.
  262000    25232   0.0011883509      0.0003402 
INFO: Particle insertion ins: inserted 5 particle templates (mass 5.235988e-05) at step 262001
 - a total of 1315 particle templates (mass 1.377065e-02) inserted so far.
  263000    25237   0.0011760781      0.0003402 
INFO: Particle insertion ins: inserted 5 particle templates (mass 5.235988e-05) at step 263001
 - a total of 1320 particle templates (mass 1.382301e-02) inserted so far.
  264000    25242   0.0011775255      0.0003402 
INFO: Particle insertion ins: inserted 5 particle templates (mass 5.235988e-05) at step 264001
 - a total of 1325 particle templates (mass 1.387537e-02) inserted so far.
  265000    25247   0.0011541758      0.0003402 
INFO: Particle insertion ins: inserted 5 particle templates (mass 5.235988e-05) at step 265001
 - a total of 1330 particle templates (mass 1.392773e-02) inserted so far.
  266000    25252    0.001146597      0.0003402 
INFO: Particle insertion ins: inserted 5 particle templates (mass 5.235988e-05) at step 266001
 - a total of 1335 particle templates (mass 1.398009e-02) inserted so far.
  267000    25257   0.0011355357      0.0003402 
INFO: Particle insertion ins: inserted 5 particle templates (mass 5.235988e-05) at step 267001
 - a total of 1340 particle templates (mass 1.403245e-02) inserted so far.
  268000    25262   0.0011289587      0.0003402 
INFO: Particle insertion ins: inserted 5 particle templates (mass 5.235988e-05) at step 268001
 - a total of 1345 particle templates (mass 1.408481e-02) inserted so far.
  269000    25267   0.0011149766      0.0003402 
INFO: Particle insertion ins: inserted 5 particle templates (mass 5.235988e-05) at step 269001
 - a total of 1350 particle templates (mass 1.413717e-02) inserted so far.
  270000    25272   0.0011109608      0.0003402 
INFO: Particle insertion ins: inserted 5 particle templates (mass 5.235988e-05) at step 270001
 - a total of 1355 particle templates (mass 1.418953e-02) inserted so far.
  271000    25277   0.0011001301      0.0003402 
INFO: Particle insertion ins: inserted 5 particle templates (mass 5.235988e-05) at step 271001
 - a total of 1360 particle templates (mass 1.424189e-02) inserted so far.
  272000    25282   0.0011046674      0.0003402 
INFO: Particle insertion ins: inserted 5 particle templates (mass 5.235988e-05) at step 272001
 - a total of 1365 particle templates (mass 1.429425e-02) inserted so far.
  273000    25287   0.0010862631      0.0003402 
INFO: Particle insertion ins: inserted 5 particle templates (mass 5.235988e-05) at step 273001
 - a total of 1370 particle templates (mass 1.434661e-02) inserted so far.
  274000    25292    0.001062212      0.0003402 
INFO: Particle insertion ins: inserted 5 particle templates (mass 5.235988e-05) at step 274001
 - a total of 1375 particle templates (mass 1.439897e-02) inserted so far.
  275000    25297   0.0010221664      0.0003402 
INFO: Particle insertion ins: inserted 5 particle templates (mass 5.235988e-05) at step 275001
 - a total of 1380 particle templates (mass 1.445133e-02) inserted so far.
  276000    25302   0.0010285456      0.0003402 
INFO: Particle insertion ins: inserted 5 particle templates (mass 5.235988e-05) at step 276001
 - a total of 1385 particle templates (mass 1.450369e-02) inserted so far.
  277000    25307   0.0010319798      0.0003402 
INFO: Particle insertion ins: inserted 5 particle templates (mass 5.235988e-05) at step 277001
 - a total of 1390 particle templates (mass 1.455605e-02) inserted so far.
  278000    25312   0.0010256507      0.0003402 
INFO: Particle insertion ins: inserted 5 particle templates (mass 5.235988e-05) at step 278001
 - a total of 1395 particle templates (mass 1.460841e-02) inserted so far.
  279000    25317    0.001017891      0.0003402 
INFO: Particle insertion ins: inserted 5 particle templates (mass 5.235988e-05) at step 279001
 - a total of 1400 particle templates (mass 1.466077e-02) inserted so far.
  280000    25322   0.0010354984      0.0003402 
INFO: Particle insertion ins: inserted 5 particle templates (mass 5.235988e-05) at step 280001
 - a total of 1405 particle templates (mass 1.471313e-02) inserted so far.
  281000    25327   0.0010560319      0.0003402 
INFO: Particle insertion ins: inserted 5 particle templates (mass 5.235988e-05) at step 281001
 - a total of 1410 particle templates (mass 1.476549e-02) inserted so far.
  282000    25332    0.001063049      0.0003402 
INFO: Particle insertion ins: inserted 5 particle templates (mass 5.235988e-05) at step 282001
 - a total of 1415 particle templates (mass 1.481785e-02) inserted so far.
  283000    25337   0.0010826445      0.0003402 
INFO: Particle insertion ins: inserted 5 particle templates (mass 5.235988e-05) at step 283001
 - a total of 1420 particle templates (mass 1.487021e-02) inserted so far.
  284000    25342   0.0010987253      0.0003402 
INFO: Particle insertion ins: inserted 5 particle templates (mass 5.235988e-05) at step 284001
 - a total of 1425 particle templates (mass 1.492257e-02) inserted so far.
  285000    25347     0.00110271      0.0003402 
INFO: Particle insertion ins: inserted 5 particle templates (mass 5.235988e-05) at step 285001
 - a total of 1430 particle templates (mass 1.497492e-02) inserted so far.
  286000    25352   0.0011122181      0.0003402 
INFO: Particle insertion ins: inserted 5 particle templates (mass 5.235988e-05) at step 286001
 - a total of 1435 particle templates (mass 1.502728e-02) inserted so far.
  287000    25357   0.0011179913      0.0003402 
INFO: Particle insertion ins: inserted 5 particle templates (mass 5.235988e-05) at step 287001
 - a total of 1440 particle templates (mass 1.507964e-02) inserted so far.
  288000    25362   0.0011260457      0.0003402 
INFO: Particle insertion ins: inserted 5 particle templates (mass 5.235988e-05) at step 288001
 - a total of 1445 particle templates (mass 1.513200e-02) inserted so far.
  289000    25367   0.0011277647      0.0003402 
INFO: Particle insertion ins: inserted 5 particle templates (mass 5.235988e-05) at step 289001
 - a total of 1450 particle templates (mass 1.518436e-02) inserted so far.
  290000    25372   0.0011366769      0.0003402 
INFO: Particle insertion ins: inserted 5 particle templates (mass 5.235988e-05) at step 290001
 - a total of 1455 particle templates (mass 1.523672e-02) inserted so far.
  291000    25377   0.0011293774      0.0003402 
INFO: Particle insertion ins: inserted 5 particle templates (mass 5.235988e-05) at step 291001
 - a total of 1460 particle templates (mass 1.528908e-02) inserted so far.
  292000    25382   0.0011372243      0.0003402 
INFO: Particle insertion ins: inserted 5 particle templates (mass 5.235988e-05) at step 292001
 - a total of 1465 particle templates (mass 1.534144e-02) inserted so far.
  293000    25387   0.0011523122      0.0003402 
INFO: Particle insertion ins: inserted 5 particle templates (mass 5.235988e-05) at step 293001
 - a total of 1470 particle templates (mass 1.539380e-02) inserted so far.
  294000    25392   0.0011534308      0.0003402 
INFO: Particle insertion ins: inserted 5 particle templates (mass 5.235988e-05) at step 294001
 - a total of 1475 particle templates (mass 1.544616e-02) inserted so far.
  295000    25397    0.001158403      0.0003402 
INFO: Particle insertion ins: inserted 5 particle templates (mass 5.235988e-05) at step 295001
 - a total of 1480 particle templates (mass 1.549852e-02) inserted so far.
  296000    25402   0.0011626314      0.0003402 
INFO: Particle insertion ins: inserted 5 particle templates (mass 5.235988e-05) at step 296001
 - a total of 1485 particle templates (mass 1.555088e-02) inserted so far.
  297000    25407   0.0011663472      0.0003402 
INFO: Particle insertion ins: inserted 5 particle templates (mass 5.235988e-05) at step 297001
 - a total of 1490 particle templates (mass 1.560324e-02) inserted so far.
  298000    25412   0.0011723903      0.0003402 
INFO: Particle insertion ins: inserted 5 particle templates (mass 5.235988e-05) at step 298001
 - a total of 1495 particle templates (mass 1.565560e-02) inserted so far.
  299000    25417   0.0011691098      0.0003402 
INFO: Particle insertion ins: inserted 5 particle templates (mass 5.235988e-05) at step 299001
 - a total of 1500 particle templates (mass 1.570796e-02) inserted so far.
  300000    25422    0.001184106      0.0003402 
INFO: Particle insertion ins: inserted 5 particle templates (mass 5.235988e-05) at step 300001
 - a total of 1505 particle templates (mass 1.576032e-02) inserted so far.
  301000    25427   0.0011811021      0.0003402 
INFO: Particle insertion ins: inserted 5 particle templates (mass 5.235988e-05) at step 301001
 - a total of 1510 particle templates (mass 1.581268e-02) inserted so far.
  302000    25432    0.001160187      0.0003402 
INFO: Particle insertion ins: inserted 5 particle templates (mass 5.235988e-05) at step 302001
 - a total of 1515 particle templates (mass 1.586504e-02) inserted so far.
  303000    25437   0.0011402402      0.0003402 
INFO: Particle insertion ins: inserted 5 particle templates (mass 5.235988e-05) at step 303001
 - a total of 1520 particle templates (mass 1.591740e-02) inserted so far.
  304000    25442   0.0011111458      0.0003402 
INFO: Particle insertion ins: inserted 5 particle templates (mass 5.235988e-05) at step 304001
 - a total of 1525 particle templates (mass 1.596976e-02) inserted so far.
  305000    25447   0.0011100863      0.0003402 
INFO: Particle insertion ins: inserted 5 particle templates (mass 5.235988e-05) at step 305001
 - a total of 1530 particle templates (mass 1.602212e-02) inserted so far.
  306000    25452   0.0010976285      0.0003402 
INFO: Particle insertion ins: inserted 5 particle templates (mass 5.235988e-05) at step 306001
 - a total of 1535 particle templates (mass 1.607448e-02) inserted so far.
  307000    25457   0.0010784629      0.0003402 
INFO: Particle insertion ins: inserted 5 particle templates (mass 5.235988e-05) at step 307001
 - a total of 1540 particle templates (mass 1.612684e-02) inserted so far.
  308000    25462   0.0010484277      0.0003402 
INFO: Particle insertion ins: inserted 5 particle templates (mass 5.235988e-05) at step 308001
 - a total of 1545 particle templates (mass 1.617920e-02) inserted so far.
  309000    25467   0.0010406382      0.0003402 
INFO: Particle insertion ins: inserted 5 particle templates (mass 5.235988e-05) at step 309001
 - a total of 1550 particle templates (mass 1.623156e-02) inserted so far.
  310000    25472   0.0010396836      0.0003402 
INFO: Particle insertion ins: inserted 5 particle templates (mass 5.235988e-05) at step 310001
 - a total of 1555 particle templates (mass 1.628392e-02) inserted so far.
  311000    25477   0.0010390951      0.0003402 
INFO: Particle insertion ins: inserted 5 particle templates (mass 5.235988e-05) at step 311001
 - a total of 1560 particle templates (mass 1.633628e-02) inserted so far.
  312000    25482   0.0010434444      0.0003402 
INFO: Particle insertion ins: inserted 5 particle templates (mass 5.235988e-05) at step 312001
 - a total of 1565 particle templates (mass 1.638864e-02) inserted so far.
  313000    25487   0.0010395822      0.0003402 
INFO: Particle insertion ins: inserted 5 particle templates (mass 5.235988e-05) at step 313001
 - a total of 1570 particle templates (mass 1.644100e-02) inserted so far.
  314000    25492    0.001042973      0.0003402 
INFO: Particle insertion ins: inserted 5 particle templates (mass 5.235988e-05) at step 314001
 - a total of 1575 particle templates (mass 1.649336e-02) inserted so far.
  315000    25497   0.0010454683      0.0003402 
INFO: Particle insertion ins: inserted 5 particle templates (mass 5.235988e-05) at step 315001
 - a total of 1580 particle templates (mass 1.654572e-02) inserted so far.
  316000    25502    0.001023638      0.0003402 
INFO: Particle insertion ins: inserted 5 particle templates (mass 5.235988e-05) at step 316001
 - a total of 1585 particle templates (mass 1.659808e-02) inserted so far.
  317000    25507   0.0010324471      0.0003402 
INFO: Particle insertion ins: inserted 5 particle templates (mass 5.235988e-05) at step 317001
 - a total of 1590 particle templates (mass 1.665044e-02) inserted so far.
  318000    25512   0.0010498589      0.0003402 
INFO: Particle insertion ins: inserted 5 particle templates (mass 5.235988e-05) at step 318001
 - a total of 1595 particle templates (mass 1.670280e-02) inserted so far.
  319000    25517   0.0010460275      0.0003402 
INFO: Particle insertion ins: inserted 5 particle templates (mass 5.235988e-05) at step 319001
 - a total of 1600 particle templates (mass 1.675516e-02) inserted so far.
  320000    25522    0.001059385      0.0003402 
INFO: Particle insertion ins: inserted 5 particle templates (mass 5.235988e-05) at step 320001
 - a total of 1605 particle templates (mass 1.680752e-02) inserted so far.
  321000    25527   0.0010542642      0.0003402 
INFO: Particle insertion ins: inserted 5 particle templates (mass 5.235988e-05) at step 321001
 - a total of 1610 particle templates (mass 1.685988e-02) inserted so far.
  322000    25532   0.0010582557      0.0003402 
INFO: Particle insertion ins: inserted 5 particle templates (mass 5.235988e-05) at step 322001
 - a total of 1615 particle templates (mass 1.691224e-02) inserted so far.
  323000    25537   0.0010634075      0.0003402 
INFO: Particle insertion ins: inserted 5 particle templates (mass 5.235988e-05) at step 323001
 - a total of 1620 particle templates (mass 1.696460e-02) inserted so far.
  324000    25542   0.0010604695      0.0003402 
INFO: Particle insertion ins: inserted 5 particle templates (mass 5.235988e-05) at step 324001
 - a total of 1625 particle templates (mass 1.701696e-02) inserted so far.
  325000    25547   0.0010708981      0.0003402 
INFO: Particle insertion ins: inserted 5 particle templates (mass 5.235988e-05) at step 325001
 - a total of 1630 particle templates (mass 1.706932e-02) inserted so far.
  326000    25552   0.0010773146      0.0003402 
INFO: Particle insertion ins: inserted 5 particle templates (mass 5.235988e-05) at step 326001
 - a total of 1635 particle templates (mass 1.712168e-02) inserted so far.
  327000    25557   0.0010764341      0.0003402 
INFO: Particle insertion ins: inserted 5 particle templates (mass 5.235988e-05) at step 327001
 - a total of 1640 particle templates (mass 1.717404e-02) inserted so far.
  328000    25562   0.0010560486      0.0003402 
INFO: Particle insertion ins: inserted 5 particle templates (mass 5.235988e-05) at step 328001
 - a total of 1645 particle templates (mass 1.722640e-02) inserted so far.
  329000    25567   0.0010583532      0.0003402 
INFO: Particle insertion ins: inserted 5 particle templates (mass 5.235988e-05) at step 329001
 - a total of 1650 particle templates (mass 1.727876e-02) inserted so far.
  330000    25572   0.0010524697      0.0003402 
INFO: Particle insertion ins: inserted 5 particle templates (mass 5.235988e-05) at step 330001
 - a total of 1655 particle templates (mass 1.733112e-02) inserted so far.
  331000    25577   0.0010598531      0.0003402 
INFO: Particle insertion ins: inserted 5 particle templates (mass 5.235988e-05) at step 331001
 - a total of 1660 particle templates (mass 1.738348e-02) inserted so far.
  332000    25582   0.0010629459      0.0003402 
INFO: Particle insertion ins: inserted 5 particle templates (mass 5.235988e-05) at step 332001
 - a total of 1665 particle templates (mass 1.743584e-02) inserted so far.
  333000    25587   0.0010769918      0.0003402 
INFO: Particle insertion ins: inserted 5 particle templates (mass 5.235988e-05) at step 333001
 - a total of 1670 particle templates (mass 1.748820e-02) inserted so far.
  334000    25592   0.0010907384      0.0003402 
INFO: Particle insertion ins: inserted 5 particle templates (mass 5.235988e-05) at step 334001
 - a total of 1675 particle templates (mass 1.754056e-02) inserted so far.
  335000    25597   0.0011025686      0.0003402 
INFO: Particle insertion ins: inserted 5 particle templates (mass 5.235988e-05) at step 335001
 - a total of 1680 particle templates (mass 1.759292e-02) inserted so far.
  336000    25602   0.0011142089      0.0003402 
INFO: Particle insertion ins: inserted 5 particle templates (mass 5.235988e-05) at step 336001
 - a total of 1685 particle templates (mass 1.764528e-02) inserted so far.
  337000    25607   0.0011207118      0.0003402 
INFO: Particle insertion ins: inserted 5 particle templates (mass 5.235988e-05) at step 337001
 - a total of 1690 particle templates (mass 1.769764e-02) inserted so far.
  338000    25612   0.0011170493      0.0003402 
INFO: Particle insertion ins: inserted 5 particle templates (mass 5.235988e-05) at step 338001
 - a total of 1695 particle templates (mass 1.775000e-02) inserted so far.
  339000    25617    0.001117845      0.0003402 
INFO: Particle insertion ins: inserted 5 particle templates (mass 5.235988e-05) at step 339001
 - a total of 1700 particle templates (mass 1.780236e-02) inserted so far.
  340000    25622   0.0011194707      0.0003402 
INFO: Particle insertion ins: inserted 5 particle templates (mass 5.235988e-05) at step 340001
 - a total of 1705 particle templates (mass 1.785472e-02) inserted so far.
  341000    25627   0.0011235781      0.0003402 
INFO: Particle insertion ins: inserted 5 particle templates (mass 5.235988e-05) at step 341001
 - a total of 1710 particle templates (mass 1.790708e-02) inserted so far.
  342000    25632   0.0011225586      0.0003402 
INFO: Particle insertion ins: inserted 5 particle templates (mass 5.235988e-05) at step 342001
 - a total of 1715 particle templates (mass 1.795944e-02) inserted so far.
  343000    25637   0.0011083369      0.0003402 
INFO: Particle insertion ins: inserted 5 particle templates (mass 5.235988e-05) at step 343001
 - a total of 1720 particle templates (mass 1.801180e-02) inserted so far.
  344000    25642   0.0010954739      0.0003402 
INFO: Particle insertion ins: inserted 5 particle templates (mass 5.235988e-05) at step 344001
 - a total of 1725 particle templates (mass 1.806416e-02) inserted so far.
  345000    25647   0.0010998614      0.0003402 
INFO: Particle insertion ins: inserted 5 particle templates (mass 5.235988e-05) at step 345001
 - a total of 1730 particle templates (mass 1.811652e-02) inserted so far.
  346000    25652   0.0011127174      0.0003402 
INFO: Particle insertion ins: inserted 5 particle templates (mass 5.235988e-05) at step 346001
 - a total of 1735 particle templates (mass 1.816888e-02) inserted so far.
  347000    25657   0.0011071345      0.0003402 
INFO: Particle insertion ins: inserted 5 particle templates (mass 5.235988e-05) at step 347001
 - a total of 1740 particle templates (mass 1.822124e-02) inserted so far.
  348000    25662   0.0011002623      0.0003402 
INFO: Particle insertion ins: inserted 5 particle templates (mass 5.235988e-05) at step 348001
 - a total of 1745 particle templates (mass 1.827360e-02) inserted so far.
  349000    25667   0.0010720997      0.0003402 
INFO: Particle insertion ins: inserted 5 particle templates (mass 5.235988e-05) at step 349001
 - a total of 1750 particle templates (mass 1.832596e-02) inserted so far.
  350000    25672   0.0010521263      0.0003402 
Loop time of 2720.46 on 16 procs for 349999 steps with 25672 atoms, finish time Wed Aug  9 19:40:15 2023


Pair  time (%) = 876.615 (32.223)
Neigh time (%) = 15.6923 (0.576826)
Comm  time (%) = 18.9496 (0.696559)
Outpt time (%) = 11.4433 (0.420639)
Other time (%) = 1797.76 (66.083)

Nlocal:    1604.5 ave 3402 max 0 min
Histogram: 7 1 0 0 0 0 0 2 2 4
Nghost:    208.312 ave 418 max 0 min
Histogram: 4 0 0 2 3 1 0 2 1 3
Neighs:    9427.88 ave 23595 max 0 min
Histogram: 8 0 0 0 0 2 2 0 0 4

Total # of neighbors = 150846
Ave neighs/atom = 5.8759
Neighbor list builds = 6752
Dangerous builds = 0


# Stop insertion
unfix           ins


# Settle particles
run             100000
Setting up run at Wed Aug  9 19:40:15 2023

Memory usage per processor = 15.7034 Mbytes
    Step    Atoms         KinEng         Volume 
  350000    25672   0.0010521263      0.0003402 
  351000    25672   0.0010325003      0.0003402 
  352000    25672   0.0010269629      0.0003402 
  353000    25672   0.0010178185      0.0003402 
  354000    25672   0.0010141175      0.0003402 
  355000    25672   0.0010158903      0.0003402 
  356000    25672   0.0010188544      0.0003402 
  357000    25672   0.0010229096      0.0003402 
  358000    25672   0.0010308896      0.0003402 
  359000    25672   0.0010324281      0.0003402 
  360000    25672    0.001029378      0.0003402 
  361000    25672   0.0010191453      0.0003402 
  362000    25672    0.001017054      0.0003402 
  363000    25672   0.0010229617      0.0003402 
  364000    25672   0.0010163729      0.0003402 
  365000    25672    0.001002295      0.0003402 
  366000    25672  0.00099741737      0.0003402 
  367000    25672  0.00099340755      0.0003402 
  368000    25672  0.00098164386      0.0003402 
  369000    25672  0.00098010424      0.0003402 
  370000    25672  0.00096925934      0.0003402 
  371000    25672  0.00098479991      0.0003402 
  372000    25672  0.00097698703      0.0003402 
  373000    25672  0.00098132721      0.0003402 
  374000    25672  0.00098028741      0.0003402 
  375000    25672  0.00098952577      0.0003402 
  376000    25672  0.00099346083      0.0003402 
  377000    25672   0.0010089535      0.0003402 
  378000    25672    0.000996483      0.0003402 
  379000    25672  0.00097517345      0.0003402 
  380000    25672  0.00098309658      0.0003402 
  381000    25672   0.0010003436      0.0003402 
  382000    25672   0.0010080545      0.0003402 
  383000    25672    0.001000459      0.0003402 
  384000    25672   0.0010078229      0.0003402 
  385000    25672  0.00098540723      0.0003402 
  386000    25672  0.00097694454      0.0003402 
  387000    25672  0.00098042821      0.0003402 
  388000    25672  0.00098622331      0.0003402 
  389000    25672  0.00098190141      0.0003402 
  390000    25672  0.00095761803      0.0003402 
  391000    25672  0.00095394451      0.0003402 
  392000    25672  0.00094539668      0.0003402 
  393000    25672  0.00091951945      0.0003402 
  394000    25672  0.00090461248      0.0003402 
  395000    25672  0.00091166134      0.0003402 
  396000    25672  0.00090868668      0.0003402 
  397000    25672  0.00091435109      0.0003402 
  398000    25672  0.00091719025      0.0003402 
  399000    25672  0.00091061335      0.0003402 
  400000    25672  0.00089579687      0.0003402 
  401000    25672  0.00087815574      0.0003402 
  402000    25672   0.0008605632      0.0003402 
  403000    25672  0.00085652153      0.0003402 
  404000    25672  0.00084614234      0.0003402 
  405000    25672  0.00084047542      0.0003402 
  406000    25672  0.00083955449      0.0003402 
  407000    25672  0.00083766595      0.0003402 
  408000    25672   0.0008370325      0.0003402 
  409000    25672    0.000826524      0.0003402 
  410000    25672  0.00081170877      0.0003402 
  411000    25672  0.00079217777      0.0003402 
  412000    25672    0.000775086      0.0003402 
  413000    25672  0.00076721477      0.0003402 
  414000    25672  0.00076247063      0.0003402 
  415000    25672  0.00074253716      0.0003402 
  416000    25672   0.0007255261      0.0003402 
  417000    25672   0.0007006218      0.0003402 
  418000    25672  0.00068920901      0.0003402 
  419000    25672   0.0006761794      0.0003402 
  420000    25672   0.0006658468      0.0003402 
  421000    25672  0.00063632158      0.0003402 
  422000    25672  0.00061667063      0.0003402 
  423000    25672  0.00061099819      0.0003402 
  424000    25672  0.00060114351      0.0003402 
  425000    25672  0.00055917155      0.0003402 
  426000    25672  0.00051628549      0.0003402 
  427000    25672  0.00048136264      0.0003402 
  428000    25672  0.00044624021      0.0003402 
  429000    25672  0.00042165333      0.0003402 
  430000    25672  0.00041199399      0.0003402 
  431000    25672  0.00040538462      0.0003402 
  432000    25672  0.00038533346      0.0003402 
  433000    25672  0.00036928528      0.0003402 
  434000    25672  0.00036211296      0.0003402 
  435000    25672  0.00035820204      0.0003402 
  436000    25672  0.00035664518      0.0003402 
  437000    25672  0.00034921057      0.0003402 
  438000    25672   0.0003225833      0.0003402 
  439000    25672  0.00030401759      0.0003402 
  440000    25672  0.00029071964      0.0003402 
  441000    25672  0.00026064594      0.0003402 
  442000    25672   0.0002459288      0.0003402 
  443000    25672  0.00023039632      0.0003402 
  444000    25672  0.00021878904      0.0003402 
  445000    25672  0.00019923643      0.0003402 
  446000    25672  0.00019512952      0.0003402 
  447000    25672  0.00017848443      0.0003402 
  448000    25672  0.00016142486      0.0003402 
  449000    25672   0.0001537935      0.0003402 
  450000    25672  0.00014432092      0.0003402 
Loop time of 769.948 on 16 procs for 100000 steps with 25672 atoms, finish time Wed Aug  9 19:53:05 2023


Pair  time (%) = 251.335 (32.6432)
Neigh time (%) = 5.1189 (0.664838)
Comm  time (%) = 5.70405 (0.740836)
Outpt time (%) = 3.21332 (0.417343)
Other time (%) = 504.576 (65.5338)

Nlocal:    1604.5 ave 3402 max 0 min
Histogram: 7 1 0 0 0 0 0 0 4 4
Nghost:    219.125 ave 455 max 0 min
Histogram: 4 0 0 2 4 0 0 0 5 1
Neighs:    9534.12 ave 23595 max 0 min
Histogram: 8 0 0 0 0 2 2 0 0 4

Total # of neighbors = 152546
Ave neighs/atom = 5.94212
Neighbor list builds = 2141
Dangerous builds = 0


# write restart file to be used in settling or tapping
write_restart   restart_filled.static


undump		dmp


# pull the stopper
# unfix           stopper

# run             30000

# fix magnetic
# fix	            mag all magnetic    0   0   6e-4

# run             30000
