ITEM: TIMESTEP
1
ITEM: NUMBER OF ATOMS
3
ITEM: BOX BOUNDS ff ff ff
-10 10
-10 10
-10 10
ITEM: ATOMS id type fx fy fz x y z radius mux muy muz 
1 1 -1.12396e-10 -5.9559e-09 5.3102e-07 0 0 0 1 0 0.00978734 3.34003 
3 1 -3.22032e-20 1.18108e-08 3.83171e-10 0 3.8 1 1 0 2.86759e-07 3.11947 
2 1 1.12507e-10 -5.85293e-09 -5.30019e-07 0 0 2 1 0 -0.00979676 3.33999 
