ITEM: TIMESTEP
1
ITEM: NUMBER OF ATOMS
3
ITEM: BOX BOUNDS ff ff ff
-10 10
-10 10
-10 10
ITEM: ATOMS id type fx fy fz x y z radius mux muy muz 
1 1 -1.01537e-09 9.91953e-08 2.57198e-07 0 0 0 1 0 0.088711 3.32275 
3 1 -2.16133e-20 -1.98428e-07 5.11433e-10 0 2 1 1 0 0.000644552 3.08684 
2 1 9.79756e-10 9.92384e-08 -2.56208e-07 0 0 2 1 0 -0.0855806 3.32164 
