ITEM: TIMESTEP
1
ITEM: NUMBER OF ATOMS
3
ITEM: BOX BOUNDS ff ff ff
-10 10
-10 10
-10 10
ITEM: ATOMS id type fx fy fz x y z radius mux muy muz 
1 1 -1.68054e-10 -6.23454e-09 5.15723e-07 0 0 0 1 0 0.0146423 3.33689 
3 1 1.65799e-20 1.23597e-08 3.81979e-10 0 3.4 1 1 0 6.74064e-07 3.11319 
2 1 1.68228e-10 -6.12273e-09 -5.14725e-07 0 0 2 1 0 -0.014657 3.33684 
