ITEM: TIMESTEP
0
ITEM: NUMBER OF ATOMS
3
ITEM: BOX BOUNDS ff ff ff
-10 10
-10 10
-10 10
ITEM: ATOMS id type fx fy fz x y z radius mux muy muz 
1 1 -1.51483e-11 7.73324e-09 4.43977e-07 0 0 0 1 0 0.00132173 3.34948 
3 1 5.26179e-21 -1.27723e-08 5.63109e-10 0 2.6 1 1 0 -0.000494623 3.09474 
2 1 4.14431e-10 5.04193e-09 -4.43146e-07 0 0 2 1 0 -0.0360259 3.32899 
