ITEM: TIMESTEP
0
ITEM: NUMBER OF ATOMS
3
ITEM: BOX BOUNDS ff ff ff
-10 10
-10 10
-10 10
ITEM: ATOMS id type fx fy fz x y z radius mux muy muz 
1 1 -5.2587e-12 -5.73146e-09 5.2388e-07 0 0 0 1 0 0.000458048 3.35014 
3 1 -1.36924e-20 1.26989e-08 3.9171e-10 0 3.5 1 1 0 -7.58728e-05 3.11484 
2 1 1.47375e-10 -6.96551e-09 -5.22889e-07 0 0 2 1 0 -0.0128096 3.33849 
