ITEM: TIMESTEP
0
ITEM: NUMBER OF ATOMS
3
ITEM: BOX BOUNDS ff ff ff
-10 10
-10 10
-10 10
ITEM: ATOMS id type fx fy fz x y z radius mux muy muz 
1 1 -7.29306e-12 -4.96093e-09 5.08401e-07 0 0 0 1 0 0.00063555 3.34996 
3 1 -8.03672e-21 1.1561e-08 4.05481e-10 0 3.2 1 1 0 -0.000135179 3.1092 
2 1 2.02931e-10 -6.59781e-09 -5.07425e-07 0 0 2 1 0 -0.0176389 3.33584 
