ITEM: TIMESTEP
2
ITEM: NUMBER OF ATOMS
3
ITEM: BOX BOUNDS ff ff ff
-10 10
-10 10
-10 10
ITEM: ATOMS id type fx fy fz x y z radius mux muy muz 
1 1 -1.51611e-10 -6.29268e-09 5.20355e-07 0 0 0 1 0 0.0132077 3.33771 
3 1 -5.30338e-20 1.24769e-08 3.81898e-10 0 3.5 1 1 0 -7.84697e-09 3.11493 
2 1 1.51615e-10 -6.1819e-09 -5.19356e-07 0 0 2 1 0 -0.0132077 3.33771 
