ITEM: TIMESTEP
3
ITEM: NUMBER OF ATOMS
3
ITEM: BOX BOUNDS ff ff ff
-10 10
-10 10
-10 10
ITEM: ATOMS id type fx fy fz x y z radius mux muy muz 
1 1 -2.33293e-10 -4.96921e-09 4.96959e-07 0 0 0 1 0 0.0203376 3.33384 
3 1 4.09445e-20 9.82072e-09 3.81684e-10 0 3.1 1 1 0 -9.35244e-11 3.10726 
2 1 2.33299e-10 -4.84862e-09 -4.95961e-07 0 0 2 1 0 -0.0203376 3.33384 
