ITEM: TIMESTEP
1
ITEM: NUMBER OF ATOMS
3
ITEM: BOX BOUNDS ff ff ff
-10 10
-10 10
-10 10
ITEM: ATOMS id type fx fy fz x y z radius mux muy muz 
1 1 -3.44029e-15 -1.81986e-14 5.58086e-07 0 0 0 1 0 2.98983e-07 3.35103 
3 1 0 0 0 0 3.9 1 1 0 0 3.14159 
2 1 1.07514e-16 1.81986e-14 -5.57493e-07 0 0 2 1 0 -9.34322e-09 3.35103 
