ITEM: TIMESTEP
2
ITEM: NUMBER OF ATOMS
3
ITEM: BOX BOUNDS ff ff ff
-10 10
-10 10
-10 10
ITEM: ATOMS id type fx fy fz x y z radius mux muy muz 
1 1 -3.34383e-18 -1.77818e-17 5.58087e-07 0 0 0 1 0 2.91976e-10 3.35103 
3 1 0 0 0 0 3.9 1 1 0 0 3.14159 
2 1 1.06405e-19 1.77738e-17 -5.57494e-07 0 0 2 1 0 -9.12424e-12 3.35103 
