ITEM: TIMESTEP
2
ITEM: NUMBER OF ATOMS
3
ITEM: BOX BOUNDS ff ff ff
-10 10
-10 10
-10 10
ITEM: ATOMS id type fx fy fz x y z radius mux muy muz 
1 1 -2.0866e-10 -5.63541e-09 5.04152e-07 0 0 0 1 0 0.0181867 3.3349 
3 1 4.73179e-21 1.11554e-08 3.81501e-10 0 3.2 1 1 0 -1.24065e-08 3.10936 
2 1 2.08666e-10 -5.5173e-09 -5.03154e-07 0 0 2 1 0 -0.0181867 3.3349 
