ITEM: TIMESTEP
3
ITEM: NUMBER OF ATOMS
3
ITEM: BOX BOUNDS ff ff ff
-10 10
-10 10
-10 10
ITEM: ATOMS id type fx fy fz x y z radius mux muy muz 
1 1 -1.8712e-10 -6.03365e-09 5.1035e-07 0 0 0 1 0 0.0163063 3.3359 
3 1 9.4685e-21 1.19542e-08 3.81503e-10 0 3.3 1 1 0 -6.4042e-11 3.11134 
2 1 1.87125e-10 -5.91801e-09 -5.09352e-07 0 0 2 1 0 -0.0163063 3.3359 
