ITEM: TIMESTEP
3
ITEM: NUMBER OF ATOMS
3
ITEM: BOX BOUNDS ff ff ff
-10 10
-10 10
-10 10
ITEM: ATOMS id type fx fy fz x y z radius mux muy muz 
1 1 -3.75055e-10 2.83633e-09 4.53865e-07 0 0 0 1 0 0.0327247 3.32895 
3 1 1.75087e-21 -5.79862e-09 3.85986e-10 0 2.7 1 1 0 -2.13219e-10 3.09776 
2 1 3.75064e-10 2.96605e-09 -4.52866e-07 0 0 2 1 0 -0.0327247 3.32895 
