ITEM: TIMESTEP
3
ITEM: NUMBER OF ATOMS
3
ITEM: BOX BOUNDS ff ff ff
-10 10
-10 10
-10 10
ITEM: ATOMS id type fx fy fz x y z radius mux muy muz 
1 1 -7.30279e-10 4.78848e-08 3.38955e-07 0 0 0 1 0 0.0637915 3.32267 
3 1 6.49849e-20 -9.58939e-08 4.15461e-10 0 2.2 1 1 0 -5.89391e-10 3.0869 
2 1 7.30297e-10 4.80143e-08 -3.37934e-07 0 0 2 1 0 -0.0637915 3.32267 
