ITEM: TIMESTEP
2
ITEM: NUMBER OF ATOMS
3
ITEM: BOX BOUNDS ff ff ff
-10 10
-10 10
-10 10
ITEM: ATOMS id type fx fy fz x y z radius mux muy muz 
1 1 -3.31585e-10 -2.38944e-10 4.6734e-07 0 0 0 1 0 0.028925 3.33025 
3 1 2.25527e-20 3.5374e-10 3.84146e-10 0 2.8 1 1 0 -2.12497e-08 3.10026 
2 1 3.31594e-10 -1.11277e-10 -4.66342e-07 0 0 2 1 0 -0.0289251 3.33025 
