ITEM: TIMESTEP
3
ITEM: NUMBER OF ATOMS
3
ITEM: BOX BOUNDS ff ff ff
-10 10
-10 10
-10 10
ITEM: ATOMS id type fx fy fz x y z radius mux muy muz 
1 1 -1.12507e-10 -5.95624e-09 5.31008e-07 0 0 0 1 0 0.00979707 3.33998 
3 1 -3.15657e-21 1.18105e-08 3.83014e-10 0 3.8 1 1 0 -2.69567e-11 3.11947 
2 1 1.1251e-10 -5.85233e-09 -5.30008e-07 0 0 2 1 0 -0.00979707 3.33998 
