ITEM: TIMESTEP
3
ITEM: NUMBER OF ATOMS
3
ITEM: BOX BOUNDS ff ff ff
-10 10
-10 10
-10 10
ITEM: ATOMS id type fx fy fz x y z radius mux muy muz 
1 1 -1.36957e-10 -6.2467e-09 5.24396e-07 0 0 0 1 0 0.0119293 3.33852 
3 1 -2.27333e-21 1.23871e-08 3.82221e-10 0 3.6 1 1 0 -3.76302e-11 3.11656 
2 1 1.3696e-10 -6.13826e-09 -5.23397e-07 0 0 2 1 0 -0.0119293 3.33852 
