ITEM: TIMESTEP
1
ITEM: NUMBER OF ATOMS
3
ITEM: BOX BOUNDS ff ff ff
-10 10
-10 10
-10 10
ITEM: ATOMS id type fx fy fz x y z radius mux muy muz 
1 1 -2.61252e-10 -3.93942e-09 4.88602e-07 0 0 0 1 0 0.0227796 3.33277 
3 1 -1.93383e-20 7.76106e-09 3.82858e-10 0 3 1 1 0 1.72758e-06 3.10502 
2 1 2.61547e-10 -3.81855e-09 -4.87606e-07 0 0 2 1 0 -0.0228044 3.33271 
