ITEM: TIMESTEP
1
ITEM: NUMBER OF ATOMS
3
ITEM: BOX BOUNDS ff ff ff
-10 10
-10 10
-10 10
ITEM: ATOMS id type fx fy fz x y z radius mux muy muz 
1 1 -8.4187e-10 6.92489e-08 3.01499e-07 0 0 0 1 0 0.0735494 3.32198 
3 1 -5.95018e-21 -1.38606e-07 4.33985e-10 0 2.1 1 1 0 2.01129e-05 3.08613 
2 1 8.43608e-10 6.93628e-08 -3.0047e-07 0 0 2 1 0 -0.0736984 3.3219 
