ITEM: TIMESTEP
0
ITEM: NUMBER OF ATOMS
3
ITEM: BOX BOUNDS ff ff ff
-10 10
-10 10
-10 10
ITEM: ATOMS id type fx fy fz x y z radius mux muy muz 
1 1 -3.52283e-12 -1.86352e-11 5.5789e-07 0 0 0 1 0 0.000306159 3.35034 
3 1 0 0 0 0 3.9 1 1 0 0 3.14159 
2 1 1.10078e-13 1.86352e-11 -5.57297e-07 0 0 2 1 0 -9.56745e-06 3.35099 
