ITEM: TIMESTEP
3
ITEM: NUMBER OF ATOMS
1
ITEM: BOX BOUNDS ff ff ff
-10 10
-10 10
-10 10
ITEM: ATOMS id type fx fy fz x y z radius mux muy muz 
3 1 -3.97382e-21 4.16975e-21 1.43794e-07 0 0 -3.6 1 0 3.12536 0 
