ITEM: TIMESTEP
2
ITEM: NUMBER OF ATOMS
1
ITEM: BOX BOUNDS ff ff ff
-10 10
-10 10
-10 10
ITEM: ATOMS id type fx fy fz x y z radius mux muy muz 
3 1 -6.63368e-21 -1.28493e-20 -2.24006e-11 0 0 -2.4 1 0 0 3.26709 
