ITEM: TIMESTEP
3
ITEM: NUMBER OF ATOMS
1
ITEM: BOX BOUNDS ff ff ff
-10 10
-10 10
-10 10
ITEM: ATOMS id type fx fy fz x y z radius mux muy muz 
3 1 5.26646e-22 1.1977e-20 -1.18945e-07 0 0 -2.6 1 0 0 3.23955 
