ITEM: TIMESTEP
30000
ITEM: NUMBER OF ATOMS
2
ITEM: BOX BOUNDS pp ff fm
-1 1
0 100
0 2
ITEM: ATOMS id type x y z vx vy vz radius fx fy fz mass omegax omegay omegaz tqx tqy tqz 
1 1 0 45.0772 1 0 -9.00205 0 0.5 0 0 0 0.523599 0 0 0 0 0 0 
2 1 0 64.9228 1 0 9.00205 0 0.5 0 0 0 0.523599 0 0 0 0 0 0 
