ITEM: TIMESTEP
2
ITEM: NUMBER OF ATOMS
1
ITEM: BOX BOUNDS ff ff ff
-10 10
-10 10
-10 10
ITEM: ATOMS id type fx fy fz x y z radius mux muy muz 
3 1 4.27115e-18 -3.5847e-07 -2.13503e-12 0 2.9 1 1 0 7.64719 4.23651e-06 
