ITEM: TIMESTEP
3
ITEM: NUMBER OF ATOMS
1
ITEM: BOX BOUNDS ff ff ff
-10 10
-10 10
-10 10
ITEM: ATOMS id type fx fy fz x y z radius mux muy muz 
3 1 -1.37474e-16 -7.28199e-07 -1.35406e-12 0 2.2 1 1 0 8.07158 6.2107e-07 
