ITEM: TIMESTEP
0
ITEM: NUMBER OF ATOMS
1
ITEM: BOX BOUNDS ff ff ff
-10 10
-10 10
-10 10
ITEM: ATOMS id type fx fy fz x y z radius mux muy muz 
3 1 3.21668e-13 -1.87422e-07 2.45107e-09 0 3.6 1 1 0 7.44603 -0.000727136 
