ITEM: TIMESTEP
2
ITEM: NUMBER OF ATOMS
1
ITEM: BOX BOUNDS ff ff ff
-10 10
-10 10
-10 10
ITEM: ATOMS id type fx fy fz x y z radius mux muy muz 
3 1 -1.49121e-16 -4.72952e-07 -5.77092e-12 0 2.6 1 1 0 7.78856 6.63455e-06 
