ITEM: TIMESTEP
0
ITEM: NUMBER OF ATOMS
1
ITEM: BOX BOUNDS ff ff ff
-10 10
-10 10
-10 10
ITEM: ATOMS id type fx fy fz x y z radius mux muy muz 
3 1 4.80311e-13 -2.20759e-07 3.7631e-09 0 3.4 1 1 0 7.4881 -0.00105658 
