ITEM: TIMESTEP
0
ITEM: NUMBER OF ATOMS
1
ITEM: BOX BOUNDS ff ff ff
-10 10
-10 10
-10 10
ITEM: ATOMS id type fx fy fz x y z radius mux muy muz 
3 1 1.46682e-12 -3.32634e-07 1.22211e-08 0 2.9 1 1 0 7.63707 -0.00293886 
