ITEM: TIMESTEP
3
ITEM: NUMBER OF ATOMS
1
ITEM: BOX BOUNDS ff ff ff
-10 10
-10 10
-10 10
ITEM: ATOMS id type fx fy fz x y z radius mux muy muz 
3 1 1.78415e-19 -2.11048e-07 -1.0808e-14 0 3.5 1 1 0 7.46975 4.26911e-08 
