ITEM: TIMESTEP
1
ITEM: NUMBER OF ATOMS
1
ITEM: BOX BOUNDS ff ff ff
-10 10
-10 10
-10 10
ITEM: ATOMS id type fx fy fz x y z radius mux muy muz 
3 1 2.92934e-15 -2.11005e-07 -1.77196e-12 0 3.5 1 1 0 7.47005 -7.25239e-06 
