ITEM: TIMESTEP
3
ITEM: NUMBER OF ATOMS
1
ITEM: BOX BOUNDS ff ff ff
-10 10
-10 10
-10 10
ITEM: ATOMS id type fx fy fz x y z radius mux muy muz 
3 1 -4.84123e-19 -3.27517e-07 -3.79254e-14 0 3 1 1 0 7.60947 1.08398e-07 
