ITEM: TIMESTEP
0
ITEM: NUMBER OF ATOMS
1
ITEM: BOX BOUNDS ff ff ff
-10 10
-10 10
-10 10
ITEM: ATOMS id type fx fy fz x y z radius mux muy muz 
3 1 1.02006e-11 -5.83854e-07 8.85371e-08 0 2.2 1 1 0 8.03022 -0.0160255 
