ITEM: TIMESTEP
2
ITEM: NUMBER OF ATOMS
1
ITEM: BOX BOUNDS ff ff ff
-10 10
-10 10
-10 10
ITEM: ATOMS id type fx fy fz x y z radius mux muy muz 
3 1 -1.92172e-17 -3.9268e-07 -2.91135e-12 0 2.8 1 1 0 7.6892 4.97129e-06 
