ITEM: TIMESTEP
2
ITEM: NUMBER OF ATOMS
1
ITEM: BOX BOUNDS ff ff ff
-10 10
-10 10
-10 10
ITEM: ATOMS id type fx fy fz x y z radius mux muy muz 
3 1 2.0713e-17 -2.74036e-07 -9.41217e-13 0 3.2 1 1 0 7.545 2.57204e-06 
