ITEM: TIMESTEP
1
ITEM: NUMBER OF ATOMS
1
ITEM: BOX BOUNDS ff ff ff
-10 10
-10 10
-10 10
ITEM: ATOMS id type fx fy fz x y z radius mux muy muz 
3 1 4.66882e-15 -2.50904e-07 3.69016e-13 0 3.3 1 1 0 7.5178 -1.35132e-05 
