ITEM: TIMESTEP
1
ITEM: NUMBER OF ATOMS
1
ITEM: BOX BOUNDS ff ff ff
-10 10
-10 10
-10 10
ITEM: ATOMS id type fx fy fz x y z radius mux muy muz 
3 1 1.55883e-13 -7.27057e-07 9.26673e-10 0 2.2 1 1 0 8.0752 -0.000580346 
