ITEM: TIMESTEP
2
ITEM: NUMBER OF ATOMS
1
ITEM: BOX BOUNDS ff ff ff
-10 10
-10 10
-10 10
ITEM: ATOMS id type fx fy fz x y z radius mux muy muz 
3 1 -1.87718e-15 -7.28248e-07 -2.87783e-11 0 2.2 1 1 0 8.07169 5.97034e-06 
