ITEM: TIMESTEP
2
ITEM: NUMBER OF ATOMS
1
ITEM: BOX BOUNDS ff ff ff
-10 10
-10 10
-10 10
ITEM: ATOMS id type fx fy fz x y z radius mux muy muz 
3 1 -5.73023e-16 -5.76125e-07 -1.24583e-11 0 2.4 1 1 0 7.91345 7.92918e-06 
