ITEM: TIMESTEP
3
ITEM: NUMBER OF ATOMS
1
ITEM: BOX BOUNDS ff ff ff
-10 10
-10 10
-10 10
ITEM: ATOMS id type fx fy fz x y z radius mux muy muz 
3 1 -5.19694e-18 -4.30611e-07 -1.08734e-13 0 2.7 1 1 0 7.73607 2.02048e-07 
