ITEM: TIMESTEP
3
ITEM: NUMBER OF ATOMS
1
ITEM: BOX BOUNDS ff ff ff
-10 10
-10 10
-10 10
ITEM: ATOMS id type fx fy fz x y z radius mux muy muz 
3 1 -2.7067e-16 -8.49528e-07 -2.4995e-12 0 2.1 1 1 0 8.16629 7.50215e-07 
