ITEM: TIMESTEP
2
ITEM: NUMBER OF ATOMS
1
ITEM: BOX BOUNDS ff ff ff
-10 10
-10 10
-10 10
ITEM: ATOMS id type fx fy fz x y z radius mux muy muz 
3 1 1.9705e-17 -2.50967e-07 -7.38886e-13 0 3.3 1 1 0 7.51739 2.17598e-06 
