ITEM: TIMESTEP
0
ITEM: NUMBER OF ATOMS
1
ITEM: BOX BOUNDS ff ff ff
-10 10
-10 10
-10 10
ITEM: ATOMS id type fx fy fz x y z radius mux muy muz 
3 1 1.87667e-12 -3.60395e-07 1.57943e-08 0 2.8 1 1 0 7.67703 -0.00366856 
