ITEM: TIMESTEP
0
ITEM: NUMBER OF ATOMS
1
ITEM: BOX BOUNDS ff ff ff
-10 10
-10 10
-10 10
ITEM: ATOMS id type fx fy fz x y z radius mux muy muz 
3 1 5.53967e-12 -4.91462e-07 4.79292e-08 0 2.4 1 1 0 7.88654 -0.00952019 
