ITEM: TIMESTEP
3
ITEM: NUMBER OF ATOMS
1
ITEM: BOX BOUNDS ff ff ff
-10 10
-10 10
-10 10
ITEM: ATOMS id type fx fy fz x y z radius mux muy muz 
3 1 -4.87152e-16 -1.0467e-06 -9.14111e-12 0 2 1 1 0 8.27346 5.66527e-06 
