ITEM: TIMESTEP
1
ITEM: NUMBER OF ATOMS
1
ITEM: BOX BOUNDS ff ff ff
-10 10
-10 10
-10 10
ITEM: ATOMS id type fx fy fz x y z radius mux muy muz 
3 1 5.97776e-15 -2.73959e-07 2.7984e-12 0 3.2 1 1 0 7.54549 -1.84907e-05 
