ITEM: TIMESTEP
1
ITEM: NUMBER OF ATOMS
1
ITEM: BOX BOUNDS ff ff ff
-10 10
-10 10
-10 10
ITEM: ATOMS id type fx fy fz x y z radius mux muy muz 
3 1 2.34982e-15 -1.93776e-07 -2.12248e-12 0 3.6 1 1 0 7.44943 -5.31337e-06 
