ITEM: TIMESTEP
1
ITEM: NUMBER OF ATOMS
1
ITEM: BOX BOUNDS ff ff ff
-10 10
-10 10
-10 10
ITEM: ATOMS id type fx fy fz x y z radius mux muy muz 
3 1 1.01243e-14 -3.27399e-07 1.36388e-11 0 3 1 1 0 7.61018 -3.49636e-05 
