ITEM: TIMESTEP
2
ITEM: NUMBER OF ATOMS
1
ITEM: BOX BOUNDS ff ff ff
-10 10
-10 10
-10 10
ITEM: ATOMS id type fx fy fz x y z radius mux muy muz 
3 1 -3.28965e-15 -8.49613e-07 -4.42102e-11 0 2.1 1 1 0 8.16645 9.60074e-07 
