ITEM: TIMESTEP
3
ITEM: NUMBER OF ATOMS
1
ITEM: BOX BOUNDS ff ff ff
-10 10
-10 10
-10 10
ITEM: ATOMS id type fx fy fz x y z radius mux muy muz 
3 1 2.05792e-19 -1.78162e-07 -7.19263e-15 0 3.7 1 1 0 7.43045 3.03153e-08 
