ITEM: TIMESTEP
0
ITEM: NUMBER OF ATOMS
1
ITEM: BOX BOUNDS ff ff ff
-10 10
-10 10
-10 10
ITEM: ATOMS id type fx fy fz x y z radius mux muy muz 
3 1 3.15794e-12 -4.21476e-07 2.7027e-08 0 2.6 1 1 0 7.77066 -0.00582827 
