ITEM: TIMESTEP
2
ITEM: NUMBER OF ATOMS
2
ITEM: BOX BOUNDS ff ff ff
-10 10
-10 10
-10 10
ITEM: ATOMS id type fx fy fz x y z radius mux muy muz 
2 1 -1.1827e-20 -1.28078e-21 7.79328e-09 0 0 -2.1 1 0 3.05901 0 
1 1 -2.63505e-20 8.72049e-23 -7.79328e-09 0 0 0 1 0 3.05901 0 
