ITEM: TIMESTEP
1
ITEM: NUMBER OF ATOMS
2
ITEM: BOX BOUNDS ff ff ff
-10 10
-10 10
-10 10
ITEM: ATOMS id type fx fy fz x y z radius mux muy muz 
2 1 3.6397e-21 1.41532e-22 1.8691e-10 0 0 -3.6 1 0 3.12485 0 
1 1 -1.1145e-20 -2.541e-21 -1.8691e-10 0 0 0 1 0 3.12485 0 
