ITEM: TIMESTEP
0
ITEM: NUMBER OF ATOMS
2
ITEM: BOX BOUNDS ff ff ff
-10 10
-10 10
-10 10
ITEM: ATOMS id type fx fy fz x y z radius mux muy muz 
2 1 -5.00675e-21 -1.42094e-21 8.40447e-10 0 0 -2.9 1 0 3.10975 0 
1 1 1.73346e-20 -1.99373e-21 -8.40437e-10 0 0 0 1 0 3.10972 0 
