ITEM: TIMESTEP
2
ITEM: NUMBER OF ATOMS
2
ITEM: BOX BOUNDS ff ff ff
-10 10
-10 10
-10 10
ITEM: ATOMS id type fx fy fz x y z radius mux muy muz 
2 1 -1.53981e-20 -1.96868e-21 1.07263e-09 0 0 -2.8 1 0 3.10622 0 
1 1 1.15426e-20 -1.7628e-22 -1.07263e-09 0 0 0 1 0 3.10622 0 
