ITEM: TIMESTEP
0
ITEM: NUMBER OF ATOMS
2
ITEM: BOX BOUNDS ff ff ff
-10 10
-10 10
-10 10
ITEM: ATOMS id type fx fy fz x y z radius mux muy muz 
2 1 1.53784e-20 6.21876e-21 -7.67707e-08 0 0 -2.4 1 0 3.08592 0 
1 1 7.13333e-21 -2.2651e-20 7.67633e-08 0 0 0 1 0 3.08579 0 
