LIGGGHTS (Version LIGGGHTS-PUBLIC 3.8.0, compiled 2023-04-27-02:42:30 by anmol, git commit unknown)
atom_style	hybrid granular dipole
boundary	f f f
newton		off
atom_modify	sort 10000 0

communicate	single vel yes
units		si
processors	1 1 1

variable reg_dim equal 10 #meters

region		reg block -${reg_dim} ${reg_dim} -${reg_dim} ${reg_dim} -${reg_dim} ${reg_dim} units box
region		reg block -10 ${reg_dim} -${reg_dim} ${reg_dim} -${reg_dim} ${reg_dim} units box
region		reg block -10 10 -${reg_dim} ${reg_dim} -${reg_dim} ${reg_dim} units box
region		reg block -10 10 -10 ${reg_dim} -${reg_dim} ${reg_dim} units box
region		reg block -10 10 -10 10 -${reg_dim} ${reg_dim} units box
region		reg block -10 10 -10 10 -10 ${reg_dim} units box
region		reg block -10 10 -10 10 -10 10 units box
create_box	1 reg
Created orthogonal box = (-10 -10 -10) to (10 10 10)
  1 by 1 by 1 MPI processor grid
neighbor	2 bin
neigh_modify	delay 0 every 1

hard_particles	yes


fix 		m1 all property/global youngsModulus peratomtype 6e6
fix 		m2 all property/global poissonsRatio peratomtype 0.278
fix 		m3 all property/global coefficientRestitution peratomtypepair 1 0.06
fix 		m4 all property/global coefficientFriction peratomtypepair 1 0.4
fix 		m6 all property/global cohesionEnergyDensity peratomtypepair 1 0.01

fix m7 all property/global magneticSusceptibility peratomtype 1


pair_style gran model hertz tangential history #cohesion sjkr
pair_coeff	* *

timestep	1e-10 # seconds

#index of simulations
# variable a loop 10
#radius of atoms
variable atom_rad equal 1.0 #meters
#diameter of atoms
variable atom_dia equal 2*${atom_rad}
variable atom_dia equal 2*1


create_atoms	1 single 0 0 0
Created 1 atoms
create_atoms	1 single 0 0 ${atom_dia}
create_atoms	1 single 0 0 2
Created 1 atoms
set		atom 1 diameter ${atom_dia}
set		atom 1 diameter 2
  1 settings made for diameter
set     atom 2 diameter ${atom_dia}
set     atom 2 diameter 2
  1 settings made for diameter

# Magnetic force is gauss (B mag field)
#                       x   y   z
fix	mag all magnetic    0   0   1

# Define loops

label loop
variable c loop 20 40
#separation between the atoms
variable sep equal ${c}*${atom_rad}/10
variable sep equal 20*${atom_rad}/10
variable sep equal 20*1/10
print "separation distance = ${sep}"
separation distance = 2

create_atoms	1 single 0 0 -${sep}
create_atoms	1 single 0 0 -2
Created 1 atoms
group           atom_j id 3
1 atoms in group atom_j

set     atom 3 diameter ${atom_dia}
set     atom 3 diameter 2
  1 settings made for diameter


dump  dmp atom_j custom 1 parallel/post_par3_FDMprint/dump_$c_*.liggghts id type fx fy fz x y z radius mux muy muz
dump  dmp atom_j custom 1 parallel/post_par3_FDMprint/dump_20_*.liggghts id type fx fy fz x y z radius mux muy muz
#dump_modify dmp format "%d %d %1.23f %1.23f %1.23f %1.23f %1.23f %1.23f %1.23f %1.23f %1.23f %1.23f"

#fix	1 nve_group nve/sphere

reset_timestep 0
run	3
Setting up run at Thu Apr 27 02:43:45 2023

Memory usage per processor = 9.36264 Mbytes
    Step    Atoms         KinEng            CPU 
       0        3              0              0 
       3        3              0      77.621238 
Loop time of 77.6213 on 1 procs for 3 steps with 3 atoms, finish time Thu Apr 27 02:45:29 2023


Pair  time (%) = 1.2397e-05 (1.59711e-05)
Neigh time (%) = 0 (0)
Comm  time (%) = 1.939e-06 (2.49803e-06)
Outpt time (%) = 0.00057567 (0.00074164)
Other time (%) = 77.6207 (99.9992)

Nlocal:    3 ave 3 max 3 min
Histogram: 1 0 0 0 0 0 0 0 0 0
Nghost:    0 ave 0 max 0 min
Histogram: 1 0 0 0 0 0 0 0 0 0
Neighs:    3 ave 3 max 3 min
Histogram: 1 0 0 0 0 0 0 0 0 0
FullNghs: 6 ave 6 max 6 min
Histogram: 1 0 0 0 0 0 0 0 0 0

Total # of neighbors = 6
Ave neighs/atom = 2
Neighbor list builds = 0
Dangerous builds = 0
undump	dmp
delete_atoms group  atom_j
Deleted 1 atoms, new total = 2
next c
#undump dmp_local
#uncompute deltas
jump in.mag loop
variable c loop 20 40
#separation between the atoms
variable sep equal ${c}*${atom_rad}/10
variable sep equal 21*${atom_rad}/10
variable sep equal 21*1/10
print "separation distance = ${sep}"
separation distance = 2.1

create_atoms	1 single 0 0 -${sep}
create_atoms	1 single 0 0 -2.1
Created 1 atoms
group           atom_j id 3
1 atoms in group atom_j

set     atom 3 diameter ${atom_dia}
set     atom 3 diameter 2
  1 settings made for diameter


dump  dmp atom_j custom 1 parallel/post_par3_FDMprint/dump_$c_*.liggghts id type fx fy fz x y z radius mux muy muz
dump  dmp atom_j custom 1 parallel/post_par3_FDMprint/dump_21_*.liggghts id type fx fy fz x y z radius mux muy muz
#dump_modify dmp format "%d %d %1.23f %1.23f %1.23f %1.23f %1.23f %1.23f %1.23f %1.23f %1.23f %1.23f"

#fix	1 nve_group nve/sphere

reset_timestep 0
run	3
Setting up run at Thu Apr 27 02:45:29 2023

Memory usage per processor = 9.36265 Mbytes
    Step    Atoms         KinEng            CPU 
       0        3              0              0 
       3        3              0      54.824851 
Loop time of 54.8249 on 1 procs for 3 steps with 3 atoms, finish time Thu Apr 27 02:46:42 2023


Pair  time (%) = 9.011e-06 (1.6436e-05)
Neigh time (%) = 0 (0)
Comm  time (%) = 1.24e-06 (2.26175e-06)
Outpt time (%) = 0.000325935 (0.000594502)
Other time (%) = 54.8245 (99.9994)

Nlocal:    3 ave 3 max 3 min
Histogram: 1 0 0 0 0 0 0 0 0 0
Nghost:    0 ave 0 max 0 min
Histogram: 1 0 0 0 0 0 0 0 0 0
Neighs:    2 ave 2 max 2 min
Histogram: 1 0 0 0 0 0 0 0 0 0
FullNghs: 4 ave 4 max 4 min
Histogram: 1 0 0 0 0 0 0 0 0 0

Total # of neighbors = 4
Ave neighs/atom = 1.33333
Neighbor list builds = 0
Dangerous builds = 0
undump	dmp
delete_atoms group  atom_j
Deleted 1 atoms, new total = 2
next c
#undump dmp_local
#uncompute deltas
jump in.mag loop
variable c loop 20 40
#separation between the atoms
variable sep equal ${c}*${atom_rad}/10
variable sep equal 22*${atom_rad}/10
variable sep equal 22*1/10
print "separation distance = ${sep}"
separation distance = 2.2

create_atoms	1 single 0 0 -${sep}
create_atoms	1 single 0 0 -2.2
Created 1 atoms
group           atom_j id 3
1 atoms in group atom_j

set     atom 3 diameter ${atom_dia}
set     atom 3 diameter 2
  1 settings made for diameter


dump  dmp atom_j custom 1 parallel/post_par3_FDMprint/dump_$c_*.liggghts id type fx fy fz x y z radius mux muy muz
dump  dmp atom_j custom 1 parallel/post_par3_FDMprint/dump_22_*.liggghts id type fx fy fz x y z radius mux muy muz
#dump_modify dmp format "%d %d %1.23f %1.23f %1.23f %1.23f %1.23f %1.23f %1.23f %1.23f %1.23f %1.23f"

#fix	1 nve_group nve/sphere

reset_timestep 0
run	3
Setting up run at Thu Apr 27 02:46:42 2023

Memory usage per processor = 9.36265 Mbytes
    Step    Atoms         KinEng            CPU 
       0        3              0              0 
       3        3              0      51.458835 
Loop time of 51.4588 on 1 procs for 3 steps with 3 atoms, finish time Thu Apr 27 02:47:50 2023


Pair  time (%) = 9.128e-06 (1.77384e-05)
Neigh time (%) = 0 (0)
Comm  time (%) = 1.178e-06 (2.28921e-06)
Outpt time (%) = 0.000269151 (0.000523041)
Other time (%) = 51.4586 (99.9995)

Nlocal:    3 ave 3 max 3 min
Histogram: 1 0 0 0 0 0 0 0 0 0
Nghost:    0 ave 0 max 0 min
Histogram: 1 0 0 0 0 0 0 0 0 0
Neighs:    2 ave 2 max 2 min
Histogram: 1 0 0 0 0 0 0 0 0 0
FullNghs: 4 ave 4 max 4 min
Histogram: 1 0 0 0 0 0 0 0 0 0

Total # of neighbors = 4
Ave neighs/atom = 1.33333
Neighbor list builds = 0
Dangerous builds = 0
undump	dmp
delete_atoms group  atom_j
Deleted 1 atoms, new total = 2
next c
#undump dmp_local
#uncompute deltas
jump in.mag loop
variable c loop 20 40
#separation between the atoms
variable sep equal ${c}*${atom_rad}/10
variable sep equal 23*${atom_rad}/10
variable sep equal 23*1/10
print "separation distance = ${sep}"
separation distance = 2.3

create_atoms	1 single 0 0 -${sep}
create_atoms	1 single 0 0 -2.3
Created 1 atoms
group           atom_j id 3
1 atoms in group atom_j

set     atom 3 diameter ${atom_dia}
set     atom 3 diameter 2
  1 settings made for diameter


dump  dmp atom_j custom 1 parallel/post_par3_FDMprint/dump_$c_*.liggghts id type fx fy fz x y z radius mux muy muz
dump  dmp atom_j custom 1 parallel/post_par3_FDMprint/dump_23_*.liggghts id type fx fy fz x y z radius mux muy muz
#dump_modify dmp format "%d %d %1.23f %1.23f %1.23f %1.23f %1.23f %1.23f %1.23f %1.23f %1.23f %1.23f"

#fix	1 nve_group nve/sphere

reset_timestep 0
run	3
Setting up run at Thu Apr 27 02:47:50 2023

Memory usage per processor = 9.36265 Mbytes
    Step    Atoms         KinEng            CPU 
       0        3              0              0 
       3        3              0      52.388531 
Loop time of 52.3885 on 1 procs for 3 steps with 3 atoms, finish time Thu Apr 27 02:49:00 2023


Pair  time (%) = 1.0722e-05 (2.04663e-05)
Neigh time (%) = 0 (0)
Comm  time (%) = 1.337e-06 (2.55208e-06)
Outpt time (%) = 0.000264552 (0.000504981)
Other time (%) = 52.3883 (99.9995)

Nlocal:    3 ave 3 max 3 min
Histogram: 1 0 0 0 0 0 0 0 0 0
Nghost:    0 ave 0 max 0 min
Histogram: 1 0 0 0 0 0 0 0 0 0
Neighs:    2 ave 2 max 2 min
Histogram: 1 0 0 0 0 0 0 0 0 0
FullNghs: 4 ave 4 max 4 min
Histogram: 1 0 0 0 0 0 0 0 0 0

Total # of neighbors = 4
Ave neighs/atom = 1.33333
Neighbor list builds = 0
Dangerous builds = 0
undump	dmp
delete_atoms group  atom_j
Deleted 1 atoms, new total = 2
next c
#undump dmp_local
#uncompute deltas
jump in.mag loop
variable c loop 20 40
#separation between the atoms
variable sep equal ${c}*${atom_rad}/10
variable sep equal 24*${atom_rad}/10
variable sep equal 24*1/10
print "separation distance = ${sep}"
separation distance = 2.4

create_atoms	1 single 0 0 -${sep}
create_atoms	1 single 0 0 -2.4
Created 1 atoms
group           atom_j id 3
1 atoms in group atom_j

set     atom 3 diameter ${atom_dia}
set     atom 3 diameter 2
  1 settings made for diameter


dump  dmp atom_j custom 1 parallel/post_par3_FDMprint/dump_$c_*.liggghts id type fx fy fz x y z radius mux muy muz
dump  dmp atom_j custom 1 parallel/post_par3_FDMprint/dump_24_*.liggghts id type fx fy fz x y z radius mux muy muz
#dump_modify dmp format "%d %d %1.23f %1.23f %1.23f %1.23f %1.23f %1.23f %1.23f %1.23f %1.23f %1.23f"

#fix	1 nve_group nve/sphere

reset_timestep 0
run	3
Setting up run at Thu Apr 27 02:49:00 2023

Memory usage per processor = 9.36265 Mbytes
    Step    Atoms         KinEng            CPU 
       0        3              0              0 
       3        3              0      51.942562 
Loop time of 51.9426 on 1 procs for 3 steps with 3 atoms, finish time Thu Apr 27 02:50:09 2023


Pair  time (%) = 1.4597e-05 (2.81022e-05)
Neigh time (%) = 0 (0)
Comm  time (%) = 1.077e-06 (2.07344e-06)
Outpt time (%) = 0.000251185 (0.000483582)
Other time (%) = 51.9423 (99.9995)

Nlocal:    3 ave 3 max 3 min
Histogram: 1 0 0 0 0 0 0 0 0 0
Nghost:    0 ave 0 max 0 min
Histogram: 1 0 0 0 0 0 0 0 0 0
Neighs:    2 ave 2 max 2 min
Histogram: 1 0 0 0 0 0 0 0 0 0
FullNghs: 4 ave 4 max 4 min
Histogram: 1 0 0 0 0 0 0 0 0 0

Total # of neighbors = 4
Ave neighs/atom = 1.33333
Neighbor list builds = 0
Dangerous builds = 0
undump	dmp
delete_atoms group  atom_j
Deleted 1 atoms, new total = 2
next c
#undump dmp_local
#uncompute deltas
jump in.mag loop
variable c loop 20 40
#separation between the atoms
variable sep equal ${c}*${atom_rad}/10
variable sep equal 25*${atom_rad}/10
variable sep equal 25*1/10
print "separation distance = ${sep}"
separation distance = 2.5

create_atoms	1 single 0 0 -${sep}
create_atoms	1 single 0 0 -2.5
Created 1 atoms
group           atom_j id 3
1 atoms in group atom_j

set     atom 3 diameter ${atom_dia}
set     atom 3 diameter 2
  1 settings made for diameter


dump  dmp atom_j custom 1 parallel/post_par3_FDMprint/dump_$c_*.liggghts id type fx fy fz x y z radius mux muy muz
dump  dmp atom_j custom 1 parallel/post_par3_FDMprint/dump_25_*.liggghts id type fx fy fz x y z radius mux muy muz
#dump_modify dmp format "%d %d %1.23f %1.23f %1.23f %1.23f %1.23f %1.23f %1.23f %1.23f %1.23f %1.23f"

#fix	1 nve_group nve/sphere

reset_timestep 0
run	3
Setting up run at Thu Apr 27 02:50:09 2023

Memory usage per processor = 9.36265 Mbytes
    Step    Atoms         KinEng            CPU 
       0        3              0              0 
       3        3              0      47.699135 
Loop time of 47.6991 on 1 procs for 3 steps with 3 atoms, finish time Thu Apr 27 02:51:13 2023


Pair  time (%) = 8.094e-06 (1.69689e-05)
Neigh time (%) = 0 (0)
Comm  time (%) = 1.034e-06 (2.16775e-06)
Outpt time (%) = 0.000217925 (0.000456874)
Other time (%) = 47.6989 (99.9995)

Nlocal:    3 ave 3 max 3 min
Histogram: 1 0 0 0 0 0 0 0 0 0
Nghost:    0 ave 0 max 0 min
Histogram: 1 0 0 0 0 0 0 0 0 0
Neighs:    2 ave 2 max 2 min
Histogram: 1 0 0 0 0 0 0 0 0 0
FullNghs: 4 ave 4 max 4 min
Histogram: 1 0 0 0 0 0 0 0 0 0

Total # of neighbors = 4
Ave neighs/atom = 1.33333
Neighbor list builds = 0
Dangerous builds = 0
undump	dmp
delete_atoms group  atom_j
Deleted 1 atoms, new total = 2
next c
#undump dmp_local
#uncompute deltas
jump in.mag loop
variable c loop 20 40
#separation between the atoms
variable sep equal ${c}*${atom_rad}/10
variable sep equal 26*${atom_rad}/10
variable sep equal 26*1/10
print "separation distance = ${sep}"
separation distance = 2.6

create_atoms	1 single 0 0 -${sep}
create_atoms	1 single 0 0 -2.6
Created 1 atoms
group           atom_j id 3
1 atoms in group atom_j

set     atom 3 diameter ${atom_dia}
set     atom 3 diameter 2
  1 settings made for diameter


dump  dmp atom_j custom 1 parallel/post_par3_FDMprint/dump_$c_*.liggghts id type fx fy fz x y z radius mux muy muz
dump  dmp atom_j custom 1 parallel/post_par3_FDMprint/dump_26_*.liggghts id type fx fy fz x y z radius mux muy muz
#dump_modify dmp format "%d %d %1.23f %1.23f %1.23f %1.23f %1.23f %1.23f %1.23f %1.23f %1.23f %1.23f"

#fix	1 nve_group nve/sphere

reset_timestep 0
run	3
Setting up run at Thu Apr 27 02:51:13 2023

Memory usage per processor = 9.36265 Mbytes
    Step    Atoms         KinEng            CPU 
       0        3              0              0 
       3        3              0      43.104919 
Loop time of 43.1049 on 1 procs for 3 steps with 3 atoms, finish time Thu Apr 27 02:52:11 2023


Pair  time (%) = 8.003e-06 (1.85663e-05)
Neigh time (%) = 0 (0)
Comm  time (%) = 1.388e-06 (3.22005e-06)
Outpt time (%) = 0.000257356 (0.000597045)
Other time (%) = 43.1047 (99.9994)

Nlocal:    3 ave 3 max 3 min
Histogram: 1 0 0 0 0 0 0 0 0 0
Nghost:    0 ave 0 max 0 min
Histogram: 1 0 0 0 0 0 0 0 0 0
Neighs:    2 ave 2 max 2 min
Histogram: 1 0 0 0 0 0 0 0 0 0
FullNghs: 4 ave 4 max 4 min
Histogram: 1 0 0 0 0 0 0 0 0 0

Total # of neighbors = 4
Ave neighs/atom = 1.33333
Neighbor list builds = 0
Dangerous builds = 0
undump	dmp
delete_atoms group  atom_j
Deleted 1 atoms, new total = 2
next c
#undump dmp_local
#uncompute deltas
jump in.mag loop
variable c loop 20 40
#separation between the atoms
variable sep equal ${c}*${atom_rad}/10
variable sep equal 27*${atom_rad}/10
variable sep equal 27*1/10
print "separation distance = ${sep}"
separation distance = 2.7

create_atoms	1 single 0 0 -${sep}
create_atoms	1 single 0 0 -2.7
Created 1 atoms
group           atom_j id 3
1 atoms in group atom_j

set     atom 3 diameter ${atom_dia}
set     atom 3 diameter 2
  1 settings made for diameter


dump  dmp atom_j custom 1 parallel/post_par3_FDMprint/dump_$c_*.liggghts id type fx fy fz x y z radius mux muy muz
dump  dmp atom_j custom 1 parallel/post_par3_FDMprint/dump_27_*.liggghts id type fx fy fz x y z radius mux muy muz
#dump_modify dmp format "%d %d %1.23f %1.23f %1.23f %1.23f %1.23f %1.23f %1.23f %1.23f %1.23f %1.23f"

#fix	1 nve_group nve/sphere

reset_timestep 0
run	3
Setting up run at Thu Apr 27 02:52:11 2023

Memory usage per processor = 9.36265 Mbytes
    Step    Atoms         KinEng            CPU 
       0        3              0              0 
       3        3              0      43.011971 
Loop time of 43.012 on 1 procs for 3 steps with 3 atoms, finish time Thu Apr 27 02:53:08 2023


Pair  time (%) = 7.41e-06 (1.72278e-05)
Neigh time (%) = 0 (0)
Comm  time (%) = 1.034e-06 (2.40398e-06)
Outpt time (%) = 0.000228931 (0.000532249)
Other time (%) = 43.0117 (99.9994)

Nlocal:    3 ave 3 max 3 min
Histogram: 1 0 0 0 0 0 0 0 0 0
Nghost:    0 ave 0 max 0 min
Histogram: 1 0 0 0 0 0 0 0 0 0
Neighs:    2 ave 2 max 2 min
Histogram: 1 0 0 0 0 0 0 0 0 0
FullNghs: 4 ave 4 max 4 min
Histogram: 1 0 0 0 0 0 0 0 0 0

Total # of neighbors = 4
Ave neighs/atom = 1.33333
Neighbor list builds = 0
Dangerous builds = 0
undump	dmp
delete_atoms group  atom_j
Deleted 1 atoms, new total = 2
next c
#undump dmp_local
#uncompute deltas
jump in.mag loop
variable c loop 20 40
#separation between the atoms
variable sep equal ${c}*${atom_rad}/10
variable sep equal 28*${atom_rad}/10
variable sep equal 28*1/10
print "separation distance = ${sep}"
separation distance = 2.8

create_atoms	1 single 0 0 -${sep}
create_atoms	1 single 0 0 -2.8
Created 1 atoms
group           atom_j id 3
1 atoms in group atom_j

set     atom 3 diameter ${atom_dia}
set     atom 3 diameter 2
  1 settings made for diameter


dump  dmp atom_j custom 1 parallel/post_par3_FDMprint/dump_$c_*.liggghts id type fx fy fz x y z radius mux muy muz
dump  dmp atom_j custom 1 parallel/post_par3_FDMprint/dump_28_*.liggghts id type fx fy fz x y z radius mux muy muz
#dump_modify dmp format "%d %d %1.23f %1.23f %1.23f %1.23f %1.23f %1.23f %1.23f %1.23f %1.23f %1.23f"

#fix	1 nve_group nve/sphere

reset_timestep 0
run	3
Setting up run at Thu Apr 27 02:53:08 2023

Memory usage per processor = 9.36265 Mbytes
    Step    Atoms         KinEng            CPU 
       0        3              0              0 
       3        3              0      43.492961 
Loop time of 43.493 on 1 procs for 3 steps with 3 atoms, finish time Thu Apr 27 02:54:06 2023


Pair  time (%) = 8.266e-06 (1.90054e-05)
Neigh time (%) = 0 (0)
Comm  time (%) = 1.086e-06 (2.49696e-06)
Outpt time (%) = 0.000261791 (0.000601916)
Other time (%) = 43.4927 (99.9994)

Nlocal:    3 ave 3 max 3 min
Histogram: 1 0 0 0 0 0 0 0 0 0
Nghost:    0 ave 0 max 0 min
Histogram: 1 0 0 0 0 0 0 0 0 0
Neighs:    2 ave 2 max 2 min
Histogram: 1 0 0 0 0 0 0 0 0 0
FullNghs: 4 ave 4 max 4 min
Histogram: 1 0 0 0 0 0 0 0 0 0

Total # of neighbors = 4
Ave neighs/atom = 1.33333
Neighbor list builds = 0
Dangerous builds = 0
undump	dmp
delete_atoms group  atom_j
Deleted 1 atoms, new total = 2
next c
#undump dmp_local
#uncompute deltas
jump in.mag loop
variable c loop 20 40
#separation between the atoms
variable sep equal ${c}*${atom_rad}/10
variable sep equal 29*${atom_rad}/10
variable sep equal 29*1/10
print "separation distance = ${sep}"
separation distance = 2.9

create_atoms	1 single 0 0 -${sep}
create_atoms	1 single 0 0 -2.9
Created 1 atoms
group           atom_j id 3
1 atoms in group atom_j

set     atom 3 diameter ${atom_dia}
set     atom 3 diameter 2
  1 settings made for diameter


dump  dmp atom_j custom 1 parallel/post_par3_FDMprint/dump_$c_*.liggghts id type fx fy fz x y z radius mux muy muz
dump  dmp atom_j custom 1 parallel/post_par3_FDMprint/dump_29_*.liggghts id type fx fy fz x y z radius mux muy muz
#dump_modify dmp format "%d %d %1.23f %1.23f %1.23f %1.23f %1.23f %1.23f %1.23f %1.23f %1.23f %1.23f"

#fix	1 nve_group nve/sphere

reset_timestep 0
run	3
Setting up run at Thu Apr 27 02:54:06 2023

Memory usage per processor = 9.36265 Mbytes
    Step    Atoms         KinEng            CPU 
       0        3              0              0 
       3        3              0      41.946616 
Loop time of 41.9466 on 1 procs for 3 steps with 3 atoms, finish time Thu Apr 27 02:55:02 2023


Pair  time (%) = 7.832e-06 (1.86713e-05)
Neigh time (%) = 0 (0)
Comm  time (%) = 1.056e-06 (2.51748e-06)
Outpt time (%) = 0.00022901 (0.000545956)
Other time (%) = 41.9464 (99.9994)

Nlocal:    3 ave 3 max 3 min
Histogram: 1 0 0 0 0 0 0 0 0 0
Nghost:    0 ave 0 max 0 min
Histogram: 1 0 0 0 0 0 0 0 0 0
Neighs:    2 ave 2 max 2 min
Histogram: 1 0 0 0 0 0 0 0 0 0
FullNghs: 4 ave 4 max 4 min
Histogram: 1 0 0 0 0 0 0 0 0 0

Total # of neighbors = 4
Ave neighs/atom = 1.33333
Neighbor list builds = 0
Dangerous builds = 0
undump	dmp
delete_atoms group  atom_j
Deleted 1 atoms, new total = 2
next c
#undump dmp_local
#uncompute deltas
jump in.mag loop
variable c loop 20 40
#separation between the atoms
variable sep equal ${c}*${atom_rad}/10
variable sep equal 30*${atom_rad}/10
variable sep equal 30*1/10
print "separation distance = ${sep}"
separation distance = 3

create_atoms	1 single 0 0 -${sep}
create_atoms	1 single 0 0 -3
Created 1 atoms
group           atom_j id 3
1 atoms in group atom_j

set     atom 3 diameter ${atom_dia}
set     atom 3 diameter 2
  1 settings made for diameter


dump  dmp atom_j custom 1 parallel/post_par3_FDMprint/dump_$c_*.liggghts id type fx fy fz x y z radius mux muy muz
dump  dmp atom_j custom 1 parallel/post_par3_FDMprint/dump_30_*.liggghts id type fx fy fz x y z radius mux muy muz
#dump_modify dmp format "%d %d %1.23f %1.23f %1.23f %1.23f %1.23f %1.23f %1.23f %1.23f %1.23f %1.23f"

#fix	1 nve_group nve/sphere

reset_timestep 0
run	3
Setting up run at Thu Apr 27 02:55:02 2023

Memory usage per processor = 9.36265 Mbytes
    Step    Atoms         KinEng            CPU 
       0        3              0              0 
       3        3              0      43.114993 
Loop time of 43.115 on 1 procs for 3 steps with 3 atoms, finish time Thu Apr 27 02:56:00 2023


Pair  time (%) = 7.229e-06 (1.67668e-05)
Neigh time (%) = 0 (0)
Comm  time (%) = 1.046e-06 (2.42607e-06)
Outpt time (%) = 0.000231319 (0.000536516)
Other time (%) = 43.1148 (99.9994)

Nlocal:    3 ave 3 max 3 min
Histogram: 1 0 0 0 0 0 0 0 0 0
Nghost:    0 ave 0 max 0 min
Histogram: 1 0 0 0 0 0 0 0 0 0
Neighs:    2 ave 2 max 2 min
Histogram: 1 0 0 0 0 0 0 0 0 0
FullNghs: 4 ave 4 max 4 min
Histogram: 1 0 0 0 0 0 0 0 0 0

Total # of neighbors = 4
Ave neighs/atom = 1.33333
Neighbor list builds = 0
Dangerous builds = 0
undump	dmp
delete_atoms group  atom_j
Deleted 1 atoms, new total = 2
next c
#undump dmp_local
#uncompute deltas
jump in.mag loop
variable c loop 20 40
#separation between the atoms
variable sep equal ${c}*${atom_rad}/10
variable sep equal 31*${atom_rad}/10
variable sep equal 31*1/10
print "separation distance = ${sep}"
separation distance = 3.1

create_atoms	1 single 0 0 -${sep}
create_atoms	1 single 0 0 -3.1
Created 1 atoms
group           atom_j id 3
1 atoms in group atom_j

set     atom 3 diameter ${atom_dia}
set     atom 3 diameter 2
  1 settings made for diameter


dump  dmp atom_j custom 1 parallel/post_par3_FDMprint/dump_$c_*.liggghts id type fx fy fz x y z radius mux muy muz
dump  dmp atom_j custom 1 parallel/post_par3_FDMprint/dump_31_*.liggghts id type fx fy fz x y z radius mux muy muz
#dump_modify dmp format "%d %d %1.23f %1.23f %1.23f %1.23f %1.23f %1.23f %1.23f %1.23f %1.23f %1.23f"

#fix	1 nve_group nve/sphere

reset_timestep 0
run	3
Setting up run at Thu Apr 27 02:56:00 2023

Memory usage per processor = 9.36265 Mbytes
    Step    Atoms         KinEng            CPU 
       0        3              0              0 
       3        3              0      42.640195 
Loop time of 42.6402 on 1 procs for 3 steps with 3 atoms, finish time Thu Apr 27 02:56:56 2023


Pair  time (%) = 7.835e-06 (1.83747e-05)
Neigh time (%) = 0 (0)
Comm  time (%) = 1.957e-05 (4.58957e-05)
Outpt time (%) = 0.000281606 (0.000660424)
Other time (%) = 42.6399 (99.9993)

Nlocal:    3 ave 3 max 3 min
Histogram: 1 0 0 0 0 0 0 0 0 0
Nghost:    0 ave 0 max 0 min
Histogram: 1 0 0 0 0 0 0 0 0 0
Neighs:    2 ave 2 max 2 min
Histogram: 1 0 0 0 0 0 0 0 0 0
FullNghs: 4 ave 4 max 4 min
Histogram: 1 0 0 0 0 0 0 0 0 0

Total # of neighbors = 4
Ave neighs/atom = 1.33333
Neighbor list builds = 0
Dangerous builds = 0
undump	dmp
delete_atoms group  atom_j
Deleted 1 atoms, new total = 2
next c
#undump dmp_local
#uncompute deltas
jump in.mag loop
variable c loop 20 40
#separation between the atoms
variable sep equal ${c}*${atom_rad}/10
variable sep equal 32*${atom_rad}/10
variable sep equal 32*1/10
print "separation distance = ${sep}"
separation distance = 3.2

create_atoms	1 single 0 0 -${sep}
create_atoms	1 single 0 0 -3.2
Created 1 atoms
group           atom_j id 3
1 atoms in group atom_j

set     atom 3 diameter ${atom_dia}
set     atom 3 diameter 2
  1 settings made for diameter


dump  dmp atom_j custom 1 parallel/post_par3_FDMprint/dump_$c_*.liggghts id type fx fy fz x y z radius mux muy muz
dump  dmp atom_j custom 1 parallel/post_par3_FDMprint/dump_32_*.liggghts id type fx fy fz x y z radius mux muy muz
#dump_modify dmp format "%d %d %1.23f %1.23f %1.23f %1.23f %1.23f %1.23f %1.23f %1.23f %1.23f %1.23f"

#fix	1 nve_group nve/sphere

reset_timestep 0
run	3
Setting up run at Thu Apr 27 02:56:56 2023

Memory usage per processor = 9.36265 Mbytes
    Step    Atoms         KinEng            CPU 
       0        3              0              0 
       3        3              0      42.330864 
Loop time of 42.3309 on 1 procs for 3 steps with 3 atoms, finish time Thu Apr 27 02:57:53 2023


Pair  time (%) = 8.594e-06 (2.0302e-05)
Neigh time (%) = 0 (0)
Comm  time (%) = 1.29e-06 (3.04742e-06)
Outpt time (%) = 0.000284208 (0.000671396)
Other time (%) = 42.3306 (99.9993)

Nlocal:    3 ave 3 max 3 min
Histogram: 1 0 0 0 0 0 0 0 0 0
Nghost:    0 ave 0 max 0 min
Histogram: 1 0 0 0 0 0 0 0 0 0
Neighs:    2 ave 2 max 2 min
Histogram: 1 0 0 0 0 0 0 0 0 0
FullNghs: 4 ave 4 max 4 min
Histogram: 1 0 0 0 0 0 0 0 0 0

Total # of neighbors = 4
Ave neighs/atom = 1.33333
Neighbor list builds = 0
Dangerous builds = 0
undump	dmp
delete_atoms group  atom_j
Deleted 1 atoms, new total = 2
next c
#undump dmp_local
#uncompute deltas
jump in.mag loop
variable c loop 20 40
#separation between the atoms
variable sep equal ${c}*${atom_rad}/10
variable sep equal 33*${atom_rad}/10
variable sep equal 33*1/10
print "separation distance = ${sep}"
separation distance = 3.3

create_atoms	1 single 0 0 -${sep}
create_atoms	1 single 0 0 -3.3
Created 1 atoms
group           atom_j id 3
1 atoms in group atom_j

set     atom 3 diameter ${atom_dia}
set     atom 3 diameter 2
  1 settings made for diameter


dump  dmp atom_j custom 1 parallel/post_par3_FDMprint/dump_$c_*.liggghts id type fx fy fz x y z radius mux muy muz
dump  dmp atom_j custom 1 parallel/post_par3_FDMprint/dump_33_*.liggghts id type fx fy fz x y z radius mux muy muz
#dump_modify dmp format "%d %d %1.23f %1.23f %1.23f %1.23f %1.23f %1.23f %1.23f %1.23f %1.23f %1.23f"

#fix	1 nve_group nve/sphere

reset_timestep 0
run	3
Setting up run at Thu Apr 27 02:57:53 2023

Memory usage per processor = 9.36265 Mbytes
    Step    Atoms         KinEng            CPU 
       0        3              0              0 
       3        3              0      42.531492 
Loop time of 42.5315 on 1 procs for 3 steps with 3 atoms, finish time Thu Apr 27 02:58:50 2023


Pair  time (%) = 7.389e-06 (1.7373e-05)
Neigh time (%) = 0 (0)
Comm  time (%) = 1.069e-06 (2.51343e-06)
Outpt time (%) = 0.000252282 (0.000593165)
Other time (%) = 42.5312 (99.9994)

Nlocal:    3 ave 3 max 3 min
Histogram: 1 0 0 0 0 0 0 0 0 0
Nghost:    0 ave 0 max 0 min
Histogram: 1 0 0 0 0 0 0 0 0 0
Neighs:    2 ave 2 max 2 min
Histogram: 1 0 0 0 0 0 0 0 0 0
FullNghs: 4 ave 4 max 4 min
Histogram: 1 0 0 0 0 0 0 0 0 0

Total # of neighbors = 4
Ave neighs/atom = 1.33333
Neighbor list builds = 0
Dangerous builds = 0
undump	dmp
delete_atoms group  atom_j
Deleted 1 atoms, new total = 2
next c
#undump dmp_local
#uncompute deltas
jump in.mag loop
variable c loop 20 40
#separation between the atoms
variable sep equal ${c}*${atom_rad}/10
variable sep equal 34*${atom_rad}/10
variable sep equal 34*1/10
print "separation distance = ${sep}"
separation distance = 3.4

create_atoms	1 single 0 0 -${sep}
create_atoms	1 single 0 0 -3.4
Created 1 atoms
group           atom_j id 3
1 atoms in group atom_j

set     atom 3 diameter ${atom_dia}
set     atom 3 diameter 2
  1 settings made for diameter


dump  dmp atom_j custom 1 parallel/post_par3_FDMprint/dump_$c_*.liggghts id type fx fy fz x y z radius mux muy muz
dump  dmp atom_j custom 1 parallel/post_par3_FDMprint/dump_34_*.liggghts id type fx fy fz x y z radius mux muy muz
#dump_modify dmp format "%d %d %1.23f %1.23f %1.23f %1.23f %1.23f %1.23f %1.23f %1.23f %1.23f %1.23f"

#fix	1 nve_group nve/sphere

reset_timestep 0
run	3
Setting up run at Thu Apr 27 02:58:50 2023

Memory usage per processor = 9.36265 Mbytes
    Step    Atoms         KinEng            CPU 
       0        3              0              0 
       3        3              0      42.170019 
Loop time of 42.17 on 1 procs for 3 steps with 3 atoms, finish time Thu Apr 27 02:59:46 2023


Pair  time (%) = 6.955e-06 (1.64928e-05)
Neigh time (%) = 0 (0)
Comm  time (%) = 1.074e-06 (2.54683e-06)
Outpt time (%) = 0.000237286 (0.000562689)
Other time (%) = 42.1698 (99.9994)

Nlocal:    3 ave 3 max 3 min
Histogram: 1 0 0 0 0 0 0 0 0 0
Nghost:    0 ave 0 max 0 min
Histogram: 1 0 0 0 0 0 0 0 0 0
Neighs:    2 ave 2 max 2 min
Histogram: 1 0 0 0 0 0 0 0 0 0
FullNghs: 4 ave 4 max 4 min
Histogram: 1 0 0 0 0 0 0 0 0 0

Total # of neighbors = 4
Ave neighs/atom = 1.33333
Neighbor list builds = 0
Dangerous builds = 0
undump	dmp
delete_atoms group  atom_j
Deleted 1 atoms, new total = 2
next c
#undump dmp_local
#uncompute deltas
jump in.mag loop
variable c loop 20 40
#separation between the atoms
variable sep equal ${c}*${atom_rad}/10
variable sep equal 35*${atom_rad}/10
variable sep equal 35*1/10
print "separation distance = ${sep}"
separation distance = 3.5

create_atoms	1 single 0 0 -${sep}
create_atoms	1 single 0 0 -3.5
Created 1 atoms
group           atom_j id 3
1 atoms in group atom_j

set     atom 3 diameter ${atom_dia}
set     atom 3 diameter 2
  1 settings made for diameter


dump  dmp atom_j custom 1 parallel/post_par3_FDMprint/dump_$c_*.liggghts id type fx fy fz x y z radius mux muy muz
dump  dmp atom_j custom 1 parallel/post_par3_FDMprint/dump_35_*.liggghts id type fx fy fz x y z radius mux muy muz
#dump_modify dmp format "%d %d %1.23f %1.23f %1.23f %1.23f %1.23f %1.23f %1.23f %1.23f %1.23f %1.23f"

#fix	1 nve_group nve/sphere

reset_timestep 0
run	3
Setting up run at Thu Apr 27 02:59:46 2023

Memory usage per processor = 9.36265 Mbytes
    Step    Atoms         KinEng            CPU 
       0        3              0              0 
       3        3              0      42.292255 
Loop time of 42.2923 on 1 procs for 3 steps with 3 atoms, finish time Thu Apr 27 03:00:42 2023


Pair  time (%) = 7.738e-06 (1.82965e-05)
Neigh time (%) = 0 (0)
Comm  time (%) = 1.102e-06 (2.60568e-06)
Outpt time (%) = 0.000228625 (0.000540583)
Other time (%) = 42.292 (99.9994)

Nlocal:    3 ave 3 max 3 min
Histogram: 1 0 0 0 0 0 0 0 0 0
Nghost:    0 ave 0 max 0 min
Histogram: 1 0 0 0 0 0 0 0 0 0
Neighs:    2 ave 2 max 2 min
Histogram: 1 0 0 0 0 0 0 0 0 0
FullNghs: 4 ave 4 max 4 min
Histogram: 1 0 0 0 0 0 0 0 0 0

Total # of neighbors = 4
Ave neighs/atom = 1.33333
Neighbor list builds = 0
Dangerous builds = 0
undump	dmp
delete_atoms group  atom_j
Deleted 1 atoms, new total = 2
next c
#undump dmp_local
#uncompute deltas
jump in.mag loop
variable c loop 20 40
#separation between the atoms
variable sep equal ${c}*${atom_rad}/10
variable sep equal 36*${atom_rad}/10
variable sep equal 36*1/10
print "separation distance = ${sep}"
separation distance = 3.6

create_atoms	1 single 0 0 -${sep}
create_atoms	1 single 0 0 -3.6
Created 1 atoms
group           atom_j id 3
1 atoms in group atom_j

set     atom 3 diameter ${atom_dia}
set     atom 3 diameter 2
  1 settings made for diameter


dump  dmp atom_j custom 1 parallel/post_par3_FDMprint/dump_$c_*.liggghts id type fx fy fz x y z radius mux muy muz
dump  dmp atom_j custom 1 parallel/post_par3_FDMprint/dump_36_*.liggghts id type fx fy fz x y z radius mux muy muz
#dump_modify dmp format "%d %d %1.23f %1.23f %1.23f %1.23f %1.23f %1.23f %1.23f %1.23f %1.23f %1.23f"

#fix	1 nve_group nve/sphere

reset_timestep 0
run	3
Setting up run at Thu Apr 27 03:00:42 2023

Memory usage per processor = 9.36265 Mbytes
    Step    Atoms         KinEng            CPU 
       0        3              0              0 
       3        3              0       42.44885 
Loop time of 42.4489 on 1 procs for 3 steps with 3 atoms, finish time Thu Apr 27 03:01:39 2023


Pair  time (%) = 8.449e-06 (1.9904e-05)
Neigh time (%) = 0 (0)
Comm  time (%) = 1.053e-06 (2.48063e-06)
Outpt time (%) = 0.000285013 (0.000671427)
Other time (%) = 42.4486 (99.9993)

Nlocal:    3 ave 3 max 3 min
Histogram: 1 0 0 0 0 0 0 0 0 0
Nghost:    0 ave 0 max 0 min
Histogram: 1 0 0 0 0 0 0 0 0 0
Neighs:    2 ave 2 max 2 min
Histogram: 1 0 0 0 0 0 0 0 0 0
FullNghs: 4 ave 4 max 4 min
Histogram: 1 0 0 0 0 0 0 0 0 0

Total # of neighbors = 4
Ave neighs/atom = 1.33333
Neighbor list builds = 0
Dangerous builds = 0
undump	dmp
delete_atoms group  atom_j
Deleted 1 atoms, new total = 2
next c
#undump dmp_local
#uncompute deltas
jump in.mag loop
variable c loop 20 40
#separation between the atoms
variable sep equal ${c}*${atom_rad}/10
variable sep equal 37*${atom_rad}/10
variable sep equal 37*1/10
print "separation distance = ${sep}"
separation distance = 3.7

create_atoms	1 single 0 0 -${sep}
create_atoms	1 single 0 0 -3.7
Created 1 atoms
group           atom_j id 3
1 atoms in group atom_j

set     atom 3 diameter ${atom_dia}
set     atom 3 diameter 2
  1 settings made for diameter


dump  dmp atom_j custom 1 parallel/post_par3_FDMprint/dump_$c_*.liggghts id type fx fy fz x y z radius mux muy muz
dump  dmp atom_j custom 1 parallel/post_par3_FDMprint/dump_37_*.liggghts id type fx fy fz x y z radius mux muy muz
#dump_modify dmp format "%d %d %1.23f %1.23f %1.23f %1.23f %1.23f %1.23f %1.23f %1.23f %1.23f %1.23f"

#fix	1 nve_group nve/sphere

reset_timestep 0
run	3
Setting up run at Thu Apr 27 03:01:39 2023

Memory usage per processor = 9.36265 Mbytes
    Step    Atoms         KinEng            CPU 
       0        3              0              0 
       3        3              0       42.99048 
Loop time of 42.9905 on 1 procs for 3 steps with 3 atoms, finish time Thu Apr 27 03:02:37 2023


Pair  time (%) = 8.276e-06 (1.92508e-05)
Neigh time (%) = 0 (0)
Comm  time (%) = 1.455e-06 (3.38447e-06)
Outpt time (%) = 0.000230152 (0.000535356)
Other time (%) = 42.9902 (99.9994)

Nlocal:    3 ave 3 max 3 min
Histogram: 1 0 0 0 0 0 0 0 0 0
Nghost:    0 ave 0 max 0 min
Histogram: 1 0 0 0 0 0 0 0 0 0
Neighs:    2 ave 2 max 2 min
Histogram: 1 0 0 0 0 0 0 0 0 0
FullNghs: 4 ave 4 max 4 min
Histogram: 1 0 0 0 0 0 0 0 0 0

Total # of neighbors = 4
Ave neighs/atom = 1.33333
Neighbor list builds = 0
Dangerous builds = 0
undump	dmp
delete_atoms group  atom_j
Deleted 1 atoms, new total = 2
next c
#undump dmp_local
#uncompute deltas
jump in.mag loop
variable c loop 20 40
#separation between the atoms
variable sep equal ${c}*${atom_rad}/10
variable sep equal 38*${atom_rad}/10
variable sep equal 38*1/10
print "separation distance = ${sep}"
separation distance = 3.8

create_atoms	1 single 0 0 -${sep}
create_atoms	1 single 0 0 -3.8
Created 1 atoms
group           atom_j id 3
1 atoms in group atom_j

set     atom 3 diameter ${atom_dia}
set     atom 3 diameter 2
  1 settings made for diameter


dump  dmp atom_j custom 1 parallel/post_par3_FDMprint/dump_$c_*.liggghts id type fx fy fz x y z radius mux muy muz
dump  dmp atom_j custom 1 parallel/post_par3_FDMprint/dump_38_*.liggghts id type fx fy fz x y z radius mux muy muz
#dump_modify dmp format "%d %d %1.23f %1.23f %1.23f %1.23f %1.23f %1.23f %1.23f %1.23f %1.23f %1.23f"

#fix	1 nve_group nve/sphere

reset_timestep 0
run	3
Setting up run at Thu Apr 27 03:02:37 2023

Memory usage per processor = 9.36265 Mbytes
    Step    Atoms         KinEng            CPU 
       0        3              0              0 
       3        3              0      42.629856 
Loop time of 42.6299 on 1 procs for 3 steps with 3 atoms, finish time Thu Apr 27 03:03:33 2023


Pair  time (%) = 2.1466e-05 (5.03544e-05)
Neigh time (%) = 0 (0)
Comm  time (%) = 1.175e-06 (2.75628e-06)
Outpt time (%) = 0.000296142 (0.000694682)
Other time (%) = 42.6295 (99.9993)

Nlocal:    3 ave 3 max 3 min
Histogram: 1 0 0 0 0 0 0 0 0 0
Nghost:    0 ave 0 max 0 min
Histogram: 1 0 0 0 0 0 0 0 0 0
Neighs:    2 ave 2 max 2 min
Histogram: 1 0 0 0 0 0 0 0 0 0
FullNghs: 4 ave 4 max 4 min
Histogram: 1 0 0 0 0 0 0 0 0 0

Total # of neighbors = 4
Ave neighs/atom = 1.33333
Neighbor list builds = 0
Dangerous builds = 0
undump	dmp
delete_atoms group  atom_j
Deleted 1 atoms, new total = 2
next c
#undump dmp_local
#uncompute deltas
jump in.mag loop
variable c loop 20 40
#separation between the atoms
variable sep equal ${c}*${atom_rad}/10
variable sep equal 39*${atom_rad}/10
variable sep equal 39*1/10
print "separation distance = ${sep}"
separation distance = 3.9

create_atoms	1 single 0 0 -${sep}
create_atoms	1 single 0 0 -3.9
Created 1 atoms
group           atom_j id 3
1 atoms in group atom_j

set     atom 3 diameter ${atom_dia}
set     atom 3 diameter 2
  1 settings made for diameter


dump  dmp atom_j custom 1 parallel/post_par3_FDMprint/dump_$c_*.liggghts id type fx fy fz x y z radius mux muy muz
dump  dmp atom_j custom 1 parallel/post_par3_FDMprint/dump_39_*.liggghts id type fx fy fz x y z radius mux muy muz
#dump_modify dmp format "%d %d %1.23f %1.23f %1.23f %1.23f %1.23f %1.23f %1.23f %1.23f %1.23f %1.23f"

#fix	1 nve_group nve/sphere

reset_timestep 0
run	3
Setting up run at Thu Apr 27 03:03:33 2023

Memory usage per processor = 9.36265 Mbytes
    Step    Atoms         KinEng            CPU 
       0        3              0              0 
       3        3              0      41.943333 
Loop time of 41.9433 on 1 procs for 3 steps with 3 atoms, finish time Thu Apr 27 03:04:29 2023


Pair  time (%) = 7.463e-06 (1.77931e-05)
Neigh time (%) = 0 (0)
Comm  time (%) = 1.088e-06 (2.59398e-06)
Outpt time (%) = 0.000244608 (0.000583187)
Other time (%) = 41.9431 (99.9994)

Nlocal:    3 ave 3 max 3 min
Histogram: 1 0 0 0 0 0 0 0 0 0
Nghost:    0 ave 0 max 0 min
Histogram: 1 0 0 0 0 0 0 0 0 0
Neighs:    2 ave 2 max 2 min
Histogram: 1 0 0 0 0 0 0 0 0 0
FullNghs: 4 ave 4 max 4 min
Histogram: 1 0 0 0 0 0 0 0 0 0

Total # of neighbors = 4
Ave neighs/atom = 1.33333
Neighbor list builds = 0
Dangerous builds = 0
undump	dmp
delete_atoms group  atom_j
Deleted 1 atoms, new total = 2
next c
#undump dmp_local
#uncompute deltas
jump in.mag loop
variable c loop 20 40
#separation between the atoms
variable sep equal ${c}*${atom_rad}/10
variable sep equal 40*${atom_rad}/10
variable sep equal 40*1/10
print "separation distance = ${sep}"
separation distance = 4

create_atoms	1 single 0 0 -${sep}
create_atoms	1 single 0 0 -4
Created 1 atoms
group           atom_j id 3
1 atoms in group atom_j

set     atom 3 diameter ${atom_dia}
set     atom 3 diameter 2
  1 settings made for diameter


dump  dmp atom_j custom 1 parallel/post_par3_FDMprint/dump_$c_*.liggghts id type fx fy fz x y z radius mux muy muz
dump  dmp atom_j custom 1 parallel/post_par3_FDMprint/dump_40_*.liggghts id type fx fy fz x y z radius mux muy muz
#dump_modify dmp format "%d %d %1.23f %1.23f %1.23f %1.23f %1.23f %1.23f %1.23f %1.23f %1.23f %1.23f"

#fix	1 nve_group nve/sphere

reset_timestep 0
run	3
Setting up run at Thu Apr 27 03:04:29 2023

Memory usage per processor = 9.36265 Mbytes
    Step    Atoms         KinEng            CPU 
       0        3              0              0 
       3        3              0      42.759431 
Loop time of 42.7594 on 1 procs for 3 steps with 3 atoms, finish time Thu Apr 27 03:05:27 2023


Pair  time (%) = 8.402e-06 (1.96495e-05)
Neigh time (%) = 0 (0)
Comm  time (%) = 1.142e-06 (2.67076e-06)
Outpt time (%) = 0.000247191 (0.000578097)
Other time (%) = 42.7592 (99.9994)

Nlocal:    3 ave 3 max 3 min
Histogram: 1 0 0 0 0 0 0 0 0 0
Nghost:    0 ave 0 max 0 min
Histogram: 1 0 0 0 0 0 0 0 0 0
Neighs:    2 ave 2 max 2 min
Histogram: 1 0 0 0 0 0 0 0 0 0
FullNghs: 4 ave 4 max 4 min
Histogram: 1 0 0 0 0 0 0 0 0 0

Total # of neighbors = 4
Ave neighs/atom = 1.33333
Neighbor list builds = 0
Dangerous builds = 0
undump	dmp
delete_atoms group  atom_j
Deleted 1 atoms, new total = 2
next c
#undump dmp_local
#uncompute deltas
jump in.mag loop
