LIGGGHTS (Version LIGGGHTS-PUBLIC 3.8.0, compiled 2023-07-08-18:25:31 by anmol, git commit unknown)
atom_style	hybrid granular dipole
boundary	f f f
newton		off
atom_modify	sort 10000 0

communicate	single vel yes
units		si
processors	1 1 1

variable reg_dim equal 10 #meters

region		reg block -${reg_dim} ${reg_dim} -${reg_dim} ${reg_dim} -${reg_dim} ${reg_dim} units box
region		reg block -10 ${reg_dim} -${reg_dim} ${reg_dim} -${reg_dim} ${reg_dim} units box
region		reg block -10 10 -${reg_dim} ${reg_dim} -${reg_dim} ${reg_dim} units box
region		reg block -10 10 -10 ${reg_dim} -${reg_dim} ${reg_dim} units box
region		reg block -10 10 -10 10 -${reg_dim} ${reg_dim} units box
region		reg block -10 10 -10 10 -10 ${reg_dim} units box
region		reg block -10 10 -10 10 -10 10 units box
create_box	1 reg
Created orthogonal box = (-10 -10 -10) to (10 10 10)
  1 by 1 by 1 MPI processor grid
neighbor	5 bin
neigh_modify	delay 0 every 1

hard_particles	yes


fix 		m1 all property/global youngsModulus peratomtype 6e6
fix 		m2 all property/global poissonsRatio peratomtype 0.278
fix 		m3 all property/global coefficientRestitution peratomtypepair 1 0.06
fix 		m4 all property/global coefficientFriction peratomtypepair 1 0.4
fix 		m6 all property/global cohesionEnergyDensity peratomtypepair 1 0.01

fix m7 all property/global magneticSusceptibility peratomtype 1


pair_style gran model hertz tangential history #cohesion sjkr
pair_coeff	* *

timestep	1e-10 # seconds

#index of simulations
# variable a loop 10
#radius of atoms
variable atom_rad equal 1.0 #meters
#diameter of atoms
variable atom_dia equal 2*${atom_rad}
variable atom_dia equal 2*1


create_atoms	1 single 0 0 0
Created 1 atoms
create_atoms	1 single 0 0 ${atom_dia}
create_atoms	1 single 0 0 2
Created 1 atoms
set		atom 1 diameter ${atom_dia}
set		atom 1 diameter 2
  1 settings made for diameter
set     atom 2 diameter ${atom_dia}
set     atom 2 diameter 2
  1 settings made for diameter

# Magnetic force is gauss (B mag field)
#                       x   y   z
fix	mag all magnetic    0   0   1

# Define loops

label loop
variable c loop 38 50
#separation between the atoms
variable sep equal ${c}*${atom_rad}/10
variable sep equal 38*${atom_rad}/10
variable sep equal 38*1/10
print "separation distance = ${sep}"
separation distance = 3.8

create_atoms	1 single 0 ${sep} ${atom_rad}
create_atoms	1 single 0 3.8 ${atom_rad}
create_atoms	1 single 0 3.8 1
Created 1 atoms
group           atom_j id 3
1 atoms in group atom_j

set     atom 3 diameter ${atom_dia}
set     atom 3 diameter 2
  1 settings made for diameter


dump  dmp all custom 1 parallel/susc1/post_par3_triangle_inclusion/dump_$c_*.liggghts id type fx fy fz x y z radius mux muy muz
dump  dmp all custom 1 parallel/susc1/post_par3_triangle_inclusion/dump_38_*.liggghts id type fx fy fz x y z radius mux muy muz
# dump  dmp atom_j custom 1 perpendicular/susc1/post_par3_triangle_SHA/dump_$c_*.liggghts id type fx fy fz x y z radius mux muy muz
# dump  dmp atom_j custom 1 perpendicular_plane/susc1/post_par3_triangle_SHA/dump_$c_*.liggghts id type fx fy fz x y z radius mux muy muz

#fix	1 nve_group nve/sphere

reset_timestep 0
run	3
Setting up run at Sat Jul  8 18:26:23 2023

Memory usage per processor = 9.34566 Mbytes
    Step    Atoms         KinEng            CPU 
       0        3              0              0 
       3        3              0      72.307582 
Loop time of 72.3076 on 1 procs for 3 steps with 3 atoms, finish time Sat Jul  8 18:28:01 2023


Pair  time (%) = 1.1216e-05 (1.55115e-05)
Neigh time (%) = 0 (0)
Comm  time (%) = 1.658e-06 (2.29298e-06)
Outpt time (%) = 0.000597721 (0.000826637)
Other time (%) = 72.307 (99.9992)

Nlocal:    3 ave 3 max 3 min
Histogram: 1 0 0 0 0 0 0 0 0 0
Nghost:    0 ave 0 max 0 min
Histogram: 1 0 0 0 0 0 0 0 0 0
Neighs:    3 ave 3 max 3 min
Histogram: 1 0 0 0 0 0 0 0 0 0
FullNghs: 6 ave 6 max 6 min
Histogram: 1 0 0 0 0 0 0 0 0 0

Total # of neighbors = 6
Ave neighs/atom = 2
Neighbor list builds = 0
Dangerous builds = 0
undump	dmp
delete_atoms group  atom_j
Deleted 1 atoms, new total = 2
next c
#undump dmp_local
#uncompute deltas
jump in.mag_3 loop
variable c loop 38 50
#separation between the atoms
variable sep equal ${c}*${atom_rad}/10
variable sep equal 39*${atom_rad}/10
variable sep equal 39*1/10
print "separation distance = ${sep}"
separation distance = 3.9

create_atoms	1 single 0 ${sep} ${atom_rad}
create_atoms	1 single 0 3.9 ${atom_rad}
create_atoms	1 single 0 3.9 1
Created 1 atoms
group           atom_j id 3
1 atoms in group atom_j

set     atom 3 diameter ${atom_dia}
set     atom 3 diameter 2
  1 settings made for diameter


dump  dmp all custom 1 parallel/susc1/post_par3_triangle_inclusion/dump_$c_*.liggghts id type fx fy fz x y z radius mux muy muz
dump  dmp all custom 1 parallel/susc1/post_par3_triangle_inclusion/dump_39_*.liggghts id type fx fy fz x y z radius mux muy muz
# dump  dmp atom_j custom 1 perpendicular/susc1/post_par3_triangle_SHA/dump_$c_*.liggghts id type fx fy fz x y z radius mux muy muz
# dump  dmp atom_j custom 1 perpendicular_plane/susc1/post_par3_triangle_SHA/dump_$c_*.liggghts id type fx fy fz x y z radius mux muy muz

#fix	1 nve_group nve/sphere

reset_timestep 0
run	3
Setting up run at Sat Jul  8 18:28:01 2023

Memory usage per processor = 9.34566 Mbytes
    Step    Atoms         KinEng            CPU 
       0        3              0              0 
       3        3              0      71.843172 
Loop time of 71.8432 on 1 procs for 3 steps with 3 atoms, finish time Sat Jul  8 18:29:36 2023


Pair  time (%) = 3.7269e-05 (5.18755e-05)
Neigh time (%) = 0 (0)
Comm  time (%) = 2.745e-06 (3.82082e-06)
Outpt time (%) = 0.000760714 (0.00105885)
Other time (%) = 71.8424 (99.9989)

Nlocal:    3 ave 3 max 3 min
Histogram: 1 0 0 0 0 0 0 0 0 0
Nghost:    0 ave 0 max 0 min
Histogram: 1 0 0 0 0 0 0 0 0 0
Neighs:    3 ave 3 max 3 min
Histogram: 1 0 0 0 0 0 0 0 0 0
FullNghs: 6 ave 6 max 6 min
Histogram: 1 0 0 0 0 0 0 0 0 0

Total # of neighbors = 6
Ave neighs/atom = 2
Neighbor list builds = 0
Dangerous builds = 0
undump	dmp
delete_atoms group  atom_j
Deleted 1 atoms, new total = 2
next c
#undump dmp_local
#uncompute deltas
jump in.mag_3 loop
variable c loop 38 50
#separation between the atoms
variable sep equal ${c}*${atom_rad}/10
variable sep equal 40*${atom_rad}/10
variable sep equal 40*1/10
print "separation distance = ${sep}"
separation distance = 4

create_atoms	1 single 0 ${sep} ${atom_rad}
create_atoms	1 single 0 4 ${atom_rad}
create_atoms	1 single 0 4 1
Created 1 atoms
group           atom_j id 3
1 atoms in group atom_j

set     atom 3 diameter ${atom_dia}
set     atom 3 diameter 2
  1 settings made for diameter


dump  dmp all custom 1 parallel/susc1/post_par3_triangle_inclusion/dump_$c_*.liggghts id type fx fy fz x y z radius mux muy muz
dump  dmp all custom 1 parallel/susc1/post_par3_triangle_inclusion/dump_40_*.liggghts id type fx fy fz x y z radius mux muy muz
# dump  dmp atom_j custom 1 perpendicular/susc1/post_par3_triangle_SHA/dump_$c_*.liggghts id type fx fy fz x y z radius mux muy muz
# dump  dmp atom_j custom 1 perpendicular_plane/susc1/post_par3_triangle_SHA/dump_$c_*.liggghts id type fx fy fz x y z radius mux muy muz

#fix	1 nve_group nve/sphere

reset_timestep 0
run	3
Setting up run at Sat Jul  8 18:29:36 2023

Memory usage per processor = 9.34566 Mbytes
    Step    Atoms         KinEng            CPU 
       0        3              0              0 
       3        3              0      71.161817 
Loop time of 71.1618 on 1 procs for 3 steps with 3 atoms, finish time Sat Jul  8 18:31:14 2023


Pair  time (%) = 8.932e-06 (1.25517e-05)
Neigh time (%) = 0 (0)
Comm  time (%) = 1.145e-06 (1.60901e-06)
Outpt time (%) = 0.000578497 (0.000812932)
Other time (%) = 71.1612 (99.9992)

Nlocal:    3 ave 3 max 3 min
Histogram: 1 0 0 0 0 0 0 0 0 0
Nghost:    0 ave 0 max 0 min
Histogram: 1 0 0 0 0 0 0 0 0 0
Neighs:    3 ave 3 max 3 min
Histogram: 1 0 0 0 0 0 0 0 0 0
FullNghs: 6 ave 6 max 6 min
Histogram: 1 0 0 0 0 0 0 0 0 0

Total # of neighbors = 6
Ave neighs/atom = 2
Neighbor list builds = 0
Dangerous builds = 0
undump	dmp
delete_atoms group  atom_j
Deleted 1 atoms, new total = 2
next c
#undump dmp_local
#uncompute deltas
jump in.mag_3 loop
variable c loop 38 50
#separation between the atoms
variable sep equal ${c}*${atom_rad}/10
variable sep equal 41*${atom_rad}/10
variable sep equal 41*1/10
print "separation distance = ${sep}"
separation distance = 4.1

create_atoms	1 single 0 ${sep} ${atom_rad}
create_atoms	1 single 0 4.1 ${atom_rad}
create_atoms	1 single 0 4.1 1
Created 1 atoms
group           atom_j id 3
1 atoms in group atom_j

set     atom 3 diameter ${atom_dia}
set     atom 3 diameter 2
  1 settings made for diameter


dump  dmp all custom 1 parallel/susc1/post_par3_triangle_inclusion/dump_$c_*.liggghts id type fx fy fz x y z radius mux muy muz
dump  dmp all custom 1 parallel/susc1/post_par3_triangle_inclusion/dump_41_*.liggghts id type fx fy fz x y z radius mux muy muz
# dump  dmp atom_j custom 1 perpendicular/susc1/post_par3_triangle_SHA/dump_$c_*.liggghts id type fx fy fz x y z radius mux muy muz
# dump  dmp atom_j custom 1 perpendicular_plane/susc1/post_par3_triangle_SHA/dump_$c_*.liggghts id type fx fy fz x y z radius mux muy muz

#fix	1 nve_group nve/sphere

reset_timestep 0
run	3
Setting up run at Sat Jul  8 18:31:14 2023

Memory usage per processor = 9.34566 Mbytes
    Step    Atoms         KinEng            CPU 
       0        3              0              0 
       3        3              0      72.425078 
Loop time of 72.4251 on 1 procs for 3 steps with 3 atoms, finish time Sat Jul  8 18:32:51 2023


Pair  time (%) = 1.6392e-05 (2.2633e-05)
Neigh time (%) = 0 (0)
Comm  time (%) = 2.322e-06 (3.20607e-06)
Outpt time (%) = 0.000785207 (0.00108416)
Other time (%) = 72.4243 (99.9989)

Nlocal:    3 ave 3 max 3 min
Histogram: 1 0 0 0 0 0 0 0 0 0
Nghost:    0 ave 0 max 0 min
Histogram: 1 0 0 0 0 0 0 0 0 0
Neighs:    3 ave 3 max 3 min
Histogram: 1 0 0 0 0 0 0 0 0 0
FullNghs: 6 ave 6 max 6 min
Histogram: 1 0 0 0 0 0 0 0 0 0

Total # of neighbors = 6
Ave neighs/atom = 2
Neighbor list builds = 0
Dangerous builds = 0
undump	dmp
delete_atoms group  atom_j
Deleted 1 atoms, new total = 2
next c
#undump dmp_local
#uncompute deltas
jump in.mag_3 loop
variable c loop 38 50
#separation between the atoms
variable sep equal ${c}*${atom_rad}/10
variable sep equal 42*${atom_rad}/10
variable sep equal 42*1/10
print "separation distance = ${sep}"
separation distance = 4.2

create_atoms	1 single 0 ${sep} ${atom_rad}
create_atoms	1 single 0 4.2 ${atom_rad}
create_atoms	1 single 0 4.2 1
Created 1 atoms
group           atom_j id 3
1 atoms in group atom_j

set     atom 3 diameter ${atom_dia}
set     atom 3 diameter 2
  1 settings made for diameter


dump  dmp all custom 1 parallel/susc1/post_par3_triangle_inclusion/dump_$c_*.liggghts id type fx fy fz x y z radius mux muy muz
dump  dmp all custom 1 parallel/susc1/post_par3_triangle_inclusion/dump_42_*.liggghts id type fx fy fz x y z radius mux muy muz
# dump  dmp atom_j custom 1 perpendicular/susc1/post_par3_triangle_SHA/dump_$c_*.liggghts id type fx fy fz x y z radius mux muy muz
# dump  dmp atom_j custom 1 perpendicular_plane/susc1/post_par3_triangle_SHA/dump_$c_*.liggghts id type fx fy fz x y z radius mux muy muz

#fix	1 nve_group nve/sphere

reset_timestep 0
run	3
Setting up run at Sat Jul  8 18:32:51 2023

Memory usage per processor = 9.34566 Mbytes
    Step    Atoms         KinEng            CPU 
       0        3              0              0 
       3        3              0      70.853445 
Loop time of 70.8535 on 1 procs for 3 steps with 3 atoms, finish time Sat Jul  8 18:34:25 2023


Pair  time (%) = 1.0587e-05 (1.49421e-05)
Neigh time (%) = 0 (0)
Comm  time (%) = 1.554e-06 (2.19326e-06)
Outpt time (%) = 0.000626388 (0.000884061)
Other time (%) = 70.8528 (99.9991)

Nlocal:    3 ave 3 max 3 min
Histogram: 1 0 0 0 0 0 0 0 0 0
Nghost:    0 ave 0 max 0 min
Histogram: 1 0 0 0 0 0 0 0 0 0
Neighs:    3 ave 3 max 3 min
Histogram: 1 0 0 0 0 0 0 0 0 0
FullNghs: 6 ave 6 max 6 min
Histogram: 1 0 0 0 0 0 0 0 0 0

Total # of neighbors = 6
Ave neighs/atom = 2
Neighbor list builds = 0
Dangerous builds = 0
undump	dmp
delete_atoms group  atom_j
Deleted 1 atoms, new total = 2
next c
#undump dmp_local
#uncompute deltas
jump in.mag_3 loop
variable c loop 38 50
#separation between the atoms
variable sep equal ${c}*${atom_rad}/10
variable sep equal 43*${atom_rad}/10
variable sep equal 43*1/10
print "separation distance = ${sep}"
separation distance = 4.3

create_atoms	1 single 0 ${sep} ${atom_rad}
create_atoms	1 single 0 4.3 ${atom_rad}
create_atoms	1 single 0 4.3 1
Created 1 atoms
group           atom_j id 3
1 atoms in group atom_j

set     atom 3 diameter ${atom_dia}
set     atom 3 diameter 2
  1 settings made for diameter


dump  dmp all custom 1 parallel/susc1/post_par3_triangle_inclusion/dump_$c_*.liggghts id type fx fy fz x y z radius mux muy muz
dump  dmp all custom 1 parallel/susc1/post_par3_triangle_inclusion/dump_43_*.liggghts id type fx fy fz x y z radius mux muy muz
# dump  dmp atom_j custom 1 perpendicular/susc1/post_par3_triangle_SHA/dump_$c_*.liggghts id type fx fy fz x y z radius mux muy muz
# dump  dmp atom_j custom 1 perpendicular_plane/susc1/post_par3_triangle_SHA/dump_$c_*.liggghts id type fx fy fz x y z radius mux muy muz

#fix	1 nve_group nve/sphere

reset_timestep 0
run	3
Setting up run at Sat Jul  8 18:34:25 2023

Memory usage per processor = 9.34566 Mbytes
    Step    Atoms         KinEng            CPU 
       0        3              0              0 
       3        3              0      71.497655 
Loop time of 71.4977 on 1 procs for 3 steps with 3 atoms, finish time Sat Jul  8 18:36:01 2023


Pair  time (%) = 1.0293e-05 (1.43963e-05)
Neigh time (%) = 0 (0)
Comm  time (%) = 1.45e-06 (2.02804e-06)
Outpt time (%) = 0.000671529 (0.000939232)
Other time (%) = 71.497 (99.999)

Nlocal:    3 ave 3 max 3 min
Histogram: 1 0 0 0 0 0 0 0 0 0
Nghost:    0 ave 0 max 0 min
Histogram: 1 0 0 0 0 0 0 0 0 0
Neighs:    3 ave 3 max 3 min
Histogram: 1 0 0 0 0 0 0 0 0 0
FullNghs: 6 ave 6 max 6 min
Histogram: 1 0 0 0 0 0 0 0 0 0

Total # of neighbors = 6
Ave neighs/atom = 2
Neighbor list builds = 0
Dangerous builds = 0
undump	dmp
delete_atoms group  atom_j
Deleted 1 atoms, new total = 2
next c
#undump dmp_local
#uncompute deltas
jump in.mag_3 loop
variable c loop 38 50
#separation between the atoms
variable sep equal ${c}*${atom_rad}/10
variable sep equal 44*${atom_rad}/10
variable sep equal 44*1/10
print "separation distance = ${sep}"
separation distance = 4.4

create_atoms	1 single 0 ${sep} ${atom_rad}
create_atoms	1 single 0 4.4 ${atom_rad}
create_atoms	1 single 0 4.4 1
Created 1 atoms
group           atom_j id 3
1 atoms in group atom_j

set     atom 3 diameter ${atom_dia}
set     atom 3 diameter 2
  1 settings made for diameter


dump  dmp all custom 1 parallel/susc1/post_par3_triangle_inclusion/dump_$c_*.liggghts id type fx fy fz x y z radius mux muy muz
dump  dmp all custom 1 parallel/susc1/post_par3_triangle_inclusion/dump_44_*.liggghts id type fx fy fz x y z radius mux muy muz
# dump  dmp atom_j custom 1 perpendicular/susc1/post_par3_triangle_SHA/dump_$c_*.liggghts id type fx fy fz x y z radius mux muy muz
# dump  dmp atom_j custom 1 perpendicular_plane/susc1/post_par3_triangle_SHA/dump_$c_*.liggghts id type fx fy fz x y z radius mux muy muz

#fix	1 nve_group nve/sphere

reset_timestep 0
run	3
Setting up run at Sat Jul  8 18:36:01 2023

Memory usage per processor = 9.34566 Mbytes
    Step    Atoms         KinEng            CPU 
       0        3              0              0 
       3        3              0      71.854041 
Loop time of 71.8541 on 1 procs for 3 steps with 3 atoms, finish time Sat Jul  8 18:37:36 2023


Pair  time (%) = 1.3756e-05 (1.91444e-05)
Neigh time (%) = 0 (0)
Comm  time (%) = 1.758e-06 (2.44663e-06)
Outpt time (%) = 0.000516737 (0.000719148)
Other time (%) = 71.8535 (99.9993)

Nlocal:    3 ave 3 max 3 min
Histogram: 1 0 0 0 0 0 0 0 0 0
Nghost:    0 ave 0 max 0 min
Histogram: 1 0 0 0 0 0 0 0 0 0
Neighs:    3 ave 3 max 3 min
Histogram: 1 0 0 0 0 0 0 0 0 0
FullNghs: 6 ave 6 max 6 min
Histogram: 1 0 0 0 0 0 0 0 0 0

Total # of neighbors = 6
Ave neighs/atom = 2
Neighbor list builds = 0
Dangerous builds = 0
undump	dmp
delete_atoms group  atom_j
Deleted 1 atoms, new total = 2
next c
#undump dmp_local
#uncompute deltas
jump in.mag_3 loop
variable c loop 38 50
#separation between the atoms
variable sep equal ${c}*${atom_rad}/10
variable sep equal 45*${atom_rad}/10
variable sep equal 45*1/10
print "separation distance = ${sep}"
separation distance = 4.5

create_atoms	1 single 0 ${sep} ${atom_rad}
create_atoms	1 single 0 4.5 ${atom_rad}
create_atoms	1 single 0 4.5 1
Created 1 atoms
group           atom_j id 3
1 atoms in group atom_j

set     atom 3 diameter ${atom_dia}
set     atom 3 diameter 2
  1 settings made for diameter


dump  dmp all custom 1 parallel/susc1/post_par3_triangle_inclusion/dump_$c_*.liggghts id type fx fy fz x y z radius mux muy muz
dump  dmp all custom 1 parallel/susc1/post_par3_triangle_inclusion/dump_45_*.liggghts id type fx fy fz x y z radius mux muy muz
# dump  dmp atom_j custom 1 perpendicular/susc1/post_par3_triangle_SHA/dump_$c_*.liggghts id type fx fy fz x y z radius mux muy muz
# dump  dmp atom_j custom 1 perpendicular_plane/susc1/post_par3_triangle_SHA/dump_$c_*.liggghts id type fx fy fz x y z radius mux muy muz

#fix	1 nve_group nve/sphere

reset_timestep 0
run	3
Setting up run at Sat Jul  8 18:37:36 2023

Memory usage per processor = 9.34566 Mbytes
    Step    Atoms         KinEng            CPU 
       0        3              0              0 
       3        3              0       70.93351 
Loop time of 70.9335 on 1 procs for 3 steps with 3 atoms, finish time Sat Jul  8 18:39:11 2023


Pair  time (%) = 1.7274e-05 (2.43524e-05)
Neigh time (%) = 0 (0)
Comm  time (%) = 3.151e-06 (4.44219e-06)
Outpt time (%) = 0.000801042 (0.00112929)
Other time (%) = 70.9327 (99.9988)

Nlocal:    3 ave 3 max 3 min
Histogram: 1 0 0 0 0 0 0 0 0 0
Nghost:    0 ave 0 max 0 min
Histogram: 1 0 0 0 0 0 0 0 0 0
Neighs:    3 ave 3 max 3 min
Histogram: 1 0 0 0 0 0 0 0 0 0
FullNghs: 6 ave 6 max 6 min
Histogram: 1 0 0 0 0 0 0 0 0 0

Total # of neighbors = 6
Ave neighs/atom = 2
Neighbor list builds = 0
Dangerous builds = 0
undump	dmp
delete_atoms group  atom_j
Deleted 1 atoms, new total = 2
next c
#undump dmp_local
#uncompute deltas
jump in.mag_3 loop
variable c loop 38 50
#separation between the atoms
variable sep equal ${c}*${atom_rad}/10
variable sep equal 46*${atom_rad}/10
variable sep equal 46*1/10
print "separation distance = ${sep}"
separation distance = 4.6

create_atoms	1 single 0 ${sep} ${atom_rad}
create_atoms	1 single 0 4.6 ${atom_rad}
create_atoms	1 single 0 4.6 1
Created 1 atoms
group           atom_j id 3
1 atoms in group atom_j

set     atom 3 diameter ${atom_dia}
set     atom 3 diameter 2
  1 settings made for diameter


dump  dmp all custom 1 parallel/susc1/post_par3_triangle_inclusion/dump_$c_*.liggghts id type fx fy fz x y z radius mux muy muz
dump  dmp all custom 1 parallel/susc1/post_par3_triangle_inclusion/dump_46_*.liggghts id type fx fy fz x y z radius mux muy muz
# dump  dmp atom_j custom 1 perpendicular/susc1/post_par3_triangle_SHA/dump_$c_*.liggghts id type fx fy fz x y z radius mux muy muz
# dump  dmp atom_j custom 1 perpendicular_plane/susc1/post_par3_triangle_SHA/dump_$c_*.liggghts id type fx fy fz x y z radius mux muy muz

#fix	1 nve_group nve/sphere

reset_timestep 0
run	3
Setting up run at Sat Jul  8 18:39:11 2023

Memory usage per processor = 9.34566 Mbytes
    Step    Atoms         KinEng            CPU 
       0        3              0              0 
       3        3              0      71.735464 
Loop time of 71.7355 on 1 procs for 3 steps with 3 atoms, finish time Sat Jul  8 18:40:46 2023


Pair  time (%) = 1.1266e-05 (1.57049e-05)
Neigh time (%) = 0 (0)
Comm  time (%) = 1.51e-06 (2.10496e-06)
Outpt time (%) = 0.00196539 (0.00273978)
Other time (%) = 71.7335 (99.9972)

Nlocal:    3 ave 3 max 3 min
Histogram: 1 0 0 0 0 0 0 0 0 0
Nghost:    0 ave 0 max 0 min
Histogram: 1 0 0 0 0 0 0 0 0 0
Neighs:    3 ave 3 max 3 min
Histogram: 1 0 0 0 0 0 0 0 0 0
FullNghs: 6 ave 6 max 6 min
Histogram: 1 0 0 0 0 0 0 0 0 0

Total # of neighbors = 6
Ave neighs/atom = 2
Neighbor list builds = 0
Dangerous builds = 0
undump	dmp
delete_atoms group  atom_j
Deleted 1 atoms, new total = 2
next c
#undump dmp_local
#uncompute deltas
jump in.mag_3 loop
variable c loop 38 50
#separation between the atoms
variable sep equal ${c}*${atom_rad}/10
variable sep equal 47*${atom_rad}/10
variable sep equal 47*1/10
print "separation distance = ${sep}"
separation distance = 4.7

create_atoms	1 single 0 ${sep} ${atom_rad}
create_atoms	1 single 0 4.7 ${atom_rad}
create_atoms	1 single 0 4.7 1
Created 1 atoms
group           atom_j id 3
1 atoms in group atom_j

set     atom 3 diameter ${atom_dia}
set     atom 3 diameter 2
  1 settings made for diameter


dump  dmp all custom 1 parallel/susc1/post_par3_triangle_inclusion/dump_$c_*.liggghts id type fx fy fz x y z radius mux muy muz
dump  dmp all custom 1 parallel/susc1/post_par3_triangle_inclusion/dump_47_*.liggghts id type fx fy fz x y z radius mux muy muz
# dump  dmp atom_j custom 1 perpendicular/susc1/post_par3_triangle_SHA/dump_$c_*.liggghts id type fx fy fz x y z radius mux muy muz
# dump  dmp atom_j custom 1 perpendicular_plane/susc1/post_par3_triangle_SHA/dump_$c_*.liggghts id type fx fy fz x y z radius mux muy muz

#fix	1 nve_group nve/sphere

reset_timestep 0
run	3
Setting up run at Sat Jul  8 18:40:46 2023

Memory usage per processor = 9.34566 Mbytes
    Step    Atoms         KinEng            CPU 
       0        3              0              0 
       3        3              0      72.124091 
Loop time of 72.1241 on 1 procs for 3 steps with 3 atoms, finish time Sat Jul  8 18:42:22 2023


Pair  time (%) = 1.717e-05 (2.38062e-05)
Neigh time (%) = 0 (0)
Comm  time (%) = 2.543e-06 (3.52587e-06)
Outpt time (%) = 0.000759615 (0.00105321)
Other time (%) = 72.1233 (99.9989)

Nlocal:    3 ave 3 max 3 min
Histogram: 1 0 0 0 0 0 0 0 0 0
Nghost:    0 ave 0 max 0 min
Histogram: 1 0 0 0 0 0 0 0 0 0
Neighs:    3 ave 3 max 3 min
Histogram: 1 0 0 0 0 0 0 0 0 0
FullNghs: 6 ave 6 max 6 min
Histogram: 1 0 0 0 0 0 0 0 0 0

Total # of neighbors = 6
Ave neighs/atom = 2
Neighbor list builds = 0
Dangerous builds = 0
undump	dmp
delete_atoms group  atom_j
Deleted 1 atoms, new total = 2
next c
#undump dmp_local
#uncompute deltas
jump in.mag_3 loop
variable c loop 38 50
#separation between the atoms
variable sep equal ${c}*${atom_rad}/10
variable sep equal 48*${atom_rad}/10
variable sep equal 48*1/10
print "separation distance = ${sep}"
separation distance = 4.8

create_atoms	1 single 0 ${sep} ${atom_rad}
create_atoms	1 single 0 4.8 ${atom_rad}
create_atoms	1 single 0 4.8 1
Created 1 atoms
group           atom_j id 3
1 atoms in group atom_j

set     atom 3 diameter ${atom_dia}
set     atom 3 diameter 2
  1 settings made for diameter


dump  dmp all custom 1 parallel/susc1/post_par3_triangle_inclusion/dump_$c_*.liggghts id type fx fy fz x y z radius mux muy muz
dump  dmp all custom 1 parallel/susc1/post_par3_triangle_inclusion/dump_48_*.liggghts id type fx fy fz x y z radius mux muy muz
# dump  dmp atom_j custom 1 perpendicular/susc1/post_par3_triangle_SHA/dump_$c_*.liggghts id type fx fy fz x y z radius mux muy muz
# dump  dmp atom_j custom 1 perpendicular_plane/susc1/post_par3_triangle_SHA/dump_$c_*.liggghts id type fx fy fz x y z radius mux muy muz

#fix	1 nve_group nve/sphere

reset_timestep 0
run	3
Setting up run at Sat Jul  8 18:42:22 2023

Memory usage per processor = 9.34566 Mbytes
    Step    Atoms         KinEng            CPU 
       0        3              0              0 
       3        3              0      72.260968 
Loop time of 72.261 on 1 procs for 3 steps with 3 atoms, finish time Sat Jul  8 18:43:59 2023


Pair  time (%) = 1.0481e-05 (1.45044e-05)
Neigh time (%) = 0 (0)
Comm  time (%) = 3.212e-06 (4.445e-06)
Outpt time (%) = 0.000705751 (0.000976669)
Other time (%) = 72.2603 (99.999)

Nlocal:    3 ave 3 max 3 min
Histogram: 1 0 0 0 0 0 0 0 0 0
Nghost:    0 ave 0 max 0 min
Histogram: 1 0 0 0 0 0 0 0 0 0
Neighs:    3 ave 3 max 3 min
Histogram: 1 0 0 0 0 0 0 0 0 0
FullNghs: 6 ave 6 max 6 min
Histogram: 1 0 0 0 0 0 0 0 0 0

Total # of neighbors = 6
Ave neighs/atom = 2
Neighbor list builds = 0
Dangerous builds = 0
undump	dmp
delete_atoms group  atom_j
Deleted 1 atoms, new total = 2
next c
#undump dmp_local
#uncompute deltas
jump in.mag_3 loop
variable c loop 38 50
#separation between the atoms
variable sep equal ${c}*${atom_rad}/10
variable sep equal 49*${atom_rad}/10
variable sep equal 49*1/10
print "separation distance = ${sep}"
separation distance = 4.9

create_atoms	1 single 0 ${sep} ${atom_rad}
create_atoms	1 single 0 4.9 ${atom_rad}
create_atoms	1 single 0 4.9 1
Created 1 atoms
group           atom_j id 3
1 atoms in group atom_j

set     atom 3 diameter ${atom_dia}
set     atom 3 diameter 2
  1 settings made for diameter


dump  dmp all custom 1 parallel/susc1/post_par3_triangle_inclusion/dump_$c_*.liggghts id type fx fy fz x y z radius mux muy muz
dump  dmp all custom 1 parallel/susc1/post_par3_triangle_inclusion/dump_49_*.liggghts id type fx fy fz x y z radius mux muy muz
# dump  dmp atom_j custom 1 perpendicular/susc1/post_par3_triangle_SHA/dump_$c_*.liggghts id type fx fy fz x y z radius mux muy muz
# dump  dmp atom_j custom 1 perpendicular_plane/susc1/post_par3_triangle_SHA/dump_$c_*.liggghts id type fx fy fz x y z radius mux muy muz

#fix	1 nve_group nve/sphere

reset_timestep 0
run	3
Setting up run at Sat Jul  8 18:43:59 2023

Memory usage per processor = 9.34566 Mbytes
    Step    Atoms         KinEng            CPU 
       0        3              0              0 
       3        3              0      71.577745 
Loop time of 71.5778 on 1 procs for 3 steps with 3 atoms, finish time Sat Jul  8 18:45:34 2023


Pair  time (%) = 1.2024e-05 (1.67985e-05)
Neigh time (%) = 0 (0)
Comm  time (%) = 1.14e-06 (1.59267e-06)
Outpt time (%) = 0.000565774 (0.000790433)
Other time (%) = 71.5772 (99.9992)

Nlocal:    3 ave 3 max 3 min
Histogram: 1 0 0 0 0 0 0 0 0 0
Nghost:    0 ave 0 max 0 min
Histogram: 1 0 0 0 0 0 0 0 0 0
Neighs:    3 ave 3 max 3 min
Histogram: 1 0 0 0 0 0 0 0 0 0
FullNghs: 6 ave 6 max 6 min
Histogram: 1 0 0 0 0 0 0 0 0 0

Total # of neighbors = 6
Ave neighs/atom = 2
Neighbor list builds = 0
Dangerous builds = 0
undump	dmp
delete_atoms group  atom_j
Deleted 1 atoms, new total = 2
next c
#undump dmp_local
#uncompute deltas
jump in.mag_3 loop
variable c loop 38 50
#separation between the atoms
variable sep equal ${c}*${atom_rad}/10
variable sep equal 50*${atom_rad}/10
variable sep equal 50*1/10
print "separation distance = ${sep}"
separation distance = 5

create_atoms	1 single 0 ${sep} ${atom_rad}
create_atoms	1 single 0 5 ${atom_rad}
create_atoms	1 single 0 5 1
Created 1 atoms
group           atom_j id 3
1 atoms in group atom_j

set     atom 3 diameter ${atom_dia}
set     atom 3 diameter 2
  1 settings made for diameter


dump  dmp all custom 1 parallel/susc1/post_par3_triangle_inclusion/dump_$c_*.liggghts id type fx fy fz x y z radius mux muy muz
dump  dmp all custom 1 parallel/susc1/post_par3_triangle_inclusion/dump_50_*.liggghts id type fx fy fz x y z radius mux muy muz
# dump  dmp atom_j custom 1 perpendicular/susc1/post_par3_triangle_SHA/dump_$c_*.liggghts id type fx fy fz x y z radius mux muy muz
# dump  dmp atom_j custom 1 perpendicular_plane/susc1/post_par3_triangle_SHA/dump_$c_*.liggghts id type fx fy fz x y z radius mux muy muz

#fix	1 nve_group nve/sphere

reset_timestep 0
run	3
Setting up run at Sat Jul  8 18:45:34 2023

Memory usage per processor = 9.34566 Mbytes
    Step    Atoms         KinEng            CPU 
       0        3              0              0 
       3        3              0      75.101757 
Loop time of 75.1018 on 1 procs for 3 steps with 3 atoms, finish time Sat Jul  8 18:47:13 2023


Pair  time (%) = 1.4311e-05 (1.90555e-05)
Neigh time (%) = 0 (0)
Comm  time (%) = 1.65e-06 (2.19702e-06)
Outpt time (%) = 0.000751749 (0.00100097)
Other time (%) = 75.101 (99.999)

Nlocal:    3 ave 3 max 3 min
Histogram: 1 0 0 0 0 0 0 0 0 0
Nghost:    0 ave 0 max 0 min
Histogram: 1 0 0 0 0 0 0 0 0 0
Neighs:    3 ave 3 max 3 min
Histogram: 1 0 0 0 0 0 0 0 0 0
FullNghs: 6 ave 6 max 6 min
Histogram: 1 0 0 0 0 0 0 0 0 0

Total # of neighbors = 6
Ave neighs/atom = 2
Neighbor list builds = 0
Dangerous builds = 0
undump	dmp
delete_atoms group  atom_j
Deleted 1 atoms, new total = 2
next c
#undump dmp_local
#uncompute deltas
jump in.mag_3 loop
