LIGGGHTS (Version LIGGGHTS-PUBLIC 3.8.0, compiled 2023-05-08-18:01:56 by anmol, git commit unknown)
atom_style	hybrid granular dipole
boundary	f f f
newton		off
atom_modify	sort 10000 0

communicate	single vel yes
units		si
processors	1 1 1

variable reg_dim equal 10 #meters

region		reg block -${reg_dim} ${reg_dim} -${reg_dim} ${reg_dim} -${reg_dim} ${reg_dim} units box
region		reg block -10 ${reg_dim} -${reg_dim} ${reg_dim} -${reg_dim} ${reg_dim} units box
region		reg block -10 10 -${reg_dim} ${reg_dim} -${reg_dim} ${reg_dim} units box
region		reg block -10 10 -10 ${reg_dim} -${reg_dim} ${reg_dim} units box
region		reg block -10 10 -10 10 -${reg_dim} ${reg_dim} units box
region		reg block -10 10 -10 10 -10 ${reg_dim} units box
region		reg block -10 10 -10 10 -10 10 units box
create_box	1 reg
Created orthogonal box = (-10 -10 -10) to (10 10 10)
  1 by 1 by 1 MPI processor grid
neighbor	2 bin
neigh_modify	delay 0 every 1

hard_particles	yes


fix 		m1 all property/global youngsModulus peratomtype 6e6
fix 		m2 all property/global poissonsRatio peratomtype 0.278
fix 		m3 all property/global coefficientRestitution peratomtypepair 1 0.06
fix 		m4 all property/global coefficientFriction peratomtypepair 1 0.4
fix 		m6 all property/global cohesionEnergyDensity peratomtypepair 1 0.01

fix m7 all property/global magneticSusceptibility peratomtype 1


pair_style gran model hertz tangential history #cohesion sjkr
pair_coeff	* *

timestep	1e-10 # seconds

#index of simulations
# variable a loop 10
#radius of atoms
variable atom_rad equal 1.0 #meters
#diameter of atoms
variable atom_dia equal 2*${atom_rad}
variable atom_dia equal 2*1


create_atoms	1 single 0 0 0
Created 1 atoms
create_atoms	1 single 0 0 ${atom_dia}
create_atoms	1 single 0 0 2
Created 1 atoms
set		atom 1 diameter ${atom_dia}
set		atom 1 diameter 2
  1 settings made for diameter
set     atom 2 diameter ${atom_dia}
set     atom 2 diameter 2
  1 settings made for diameter

# Magnetic force is gauss (B mag field)
#                       x   y   z
fix	mag all magnetic    0   1   0

# Define loops

label loop
variable c loop 20 40
#separation between the atoms
variable sep equal ${c}*${atom_rad}/10
variable sep equal 20*${atom_rad}/10
variable sep equal 20*1/10
print "separation distance = ${sep}"
separation distance = 2

create_atoms	1 single 0 0 -${sep}
create_atoms	1 single 0 0 -2
Created 1 atoms
group           atom_j id 3
1 atoms in group atom_j

set     atom 3 diameter ${atom_dia}
set     atom 3 diameter 2
  1 settings made for diameter


# dump  dmp atom_j custom 1 parallel/post_par3_trial/dump_$c_*.liggghts id type fx fy fz x y z radius mux muy muz
dump  dmp atom_j custom 1 perpendicular/post_par3_trial/dump_$c_*.liggghts id type fx fy fz x y z radius mux muy muz
dump  dmp atom_j custom 1 perpendicular/post_par3_trial/dump_20_*.liggghts id type fx fy fz x y z radius mux muy muz
#dump_modify dmp format "%d %d %1.23f %1.23f %1.23f %1.23f %1.23f %1.23f %1.23f %1.23f %1.23f %1.23f"

#fix	1 nve_group nve/sphere

reset_timestep 0
run	3
Setting up run at Mon May  8 19:04:08 2023

Memory usage per processor = 9.36264 Mbytes
    Step    Atoms         KinEng            CPU 
       0        3              0              0 
       3        3              0      86.108532 
Loop time of 86.1086 on 1 procs for 3 steps with 3 atoms, finish time Mon May  8 19:06:01 2023


Pair  time (%) = 3.1832e-05 (3.69673e-05)
Neigh time (%) = 0 (0)
Comm  time (%) = 3.688e-06 (4.28297e-06)
Outpt time (%) = 0.000679849 (0.000789525)
Other time (%) = 86.1078 (99.9992)

Nlocal:    3 ave 3 max 3 min
Histogram: 1 0 0 0 0 0 0 0 0 0
Nghost:    0 ave 0 max 0 min
Histogram: 1 0 0 0 0 0 0 0 0 0
Neighs:    3 ave 3 max 3 min
Histogram: 1 0 0 0 0 0 0 0 0 0
FullNghs: 6 ave 6 max 6 min
Histogram: 1 0 0 0 0 0 0 0 0 0

Total # of neighbors = 6
Ave neighs/atom = 2
Neighbor list builds = 0
Dangerous builds = 0
undump	dmp
delete_atoms group  atom_j
Deleted 1 atoms, new total = 2
next c
#undump dmp_local
#uncompute deltas
jump in.mag loop
variable c loop 20 40
#separation between the atoms
variable sep equal ${c}*${atom_rad}/10
variable sep equal 21*${atom_rad}/10
variable sep equal 21*1/10
print "separation distance = ${sep}"
separation distance = 2.1

create_atoms	1 single 0 0 -${sep}
create_atoms	1 single 0 0 -2.1
Created 1 atoms
group           atom_j id 3
1 atoms in group atom_j

set     atom 3 diameter ${atom_dia}
set     atom 3 diameter 2
  1 settings made for diameter


# dump  dmp atom_j custom 1 parallel/post_par3_trial/dump_$c_*.liggghts id type fx fy fz x y z radius mux muy muz
dump  dmp atom_j custom 1 perpendicular/post_par3_trial/dump_$c_*.liggghts id type fx fy fz x y z radius mux muy muz
dump  dmp atom_j custom 1 perpendicular/post_par3_trial/dump_21_*.liggghts id type fx fy fz x y z radius mux muy muz
#dump_modify dmp format "%d %d %1.23f %1.23f %1.23f %1.23f %1.23f %1.23f %1.23f %1.23f %1.23f %1.23f"

#fix	1 nve_group nve/sphere

reset_timestep 0
run	3
Setting up run at Mon May  8 19:06:01 2023

Memory usage per processor = 9.36265 Mbytes
    Step    Atoms         KinEng            CPU 
       0        3              0              0 
       3        3              0      53.708169 
Loop time of 53.7082 on 1 procs for 3 steps with 3 atoms, finish time Mon May  8 19:07:12 2023


Pair  time (%) = 2.7436e-05 (5.10834e-05)
Neigh time (%) = 0 (0)
Comm  time (%) = 3.607e-06 (6.71592e-06)
Outpt time (%) = 0.000556963 (0.00103702)
Other time (%) = 53.7076 (99.9989)

Nlocal:    3 ave 3 max 3 min
Histogram: 1 0 0 0 0 0 0 0 0 0
Nghost:    0 ave 0 max 0 min
Histogram: 1 0 0 0 0 0 0 0 0 0
Neighs:    2 ave 2 max 2 min
Histogram: 1 0 0 0 0 0 0 0 0 0
FullNghs: 4 ave 4 max 4 min
Histogram: 1 0 0 0 0 0 0 0 0 0

Total # of neighbors = 4
Ave neighs/atom = 1.33333
Neighbor list builds = 0
Dangerous builds = 0
undump	dmp
delete_atoms group  atom_j
Deleted 1 atoms, new total = 2
next c
#undump dmp_local
#uncompute deltas
jump in.mag loop
variable c loop 20 40
#separation between the atoms
variable sep equal ${c}*${atom_rad}/10
variable sep equal 22*${atom_rad}/10
variable sep equal 22*1/10
print "separation distance = ${sep}"
separation distance = 2.2

create_atoms	1 single 0 0 -${sep}
create_atoms	1 single 0 0 -2.2
Created 1 atoms
group           atom_j id 3
1 atoms in group atom_j

set     atom 3 diameter ${atom_dia}
set     atom 3 diameter 2
  1 settings made for diameter


# dump  dmp atom_j custom 1 parallel/post_par3_trial/dump_$c_*.liggghts id type fx fy fz x y z radius mux muy muz
dump  dmp atom_j custom 1 perpendicular/post_par3_trial/dump_$c_*.liggghts id type fx fy fz x y z radius mux muy muz
dump  dmp atom_j custom 1 perpendicular/post_par3_trial/dump_22_*.liggghts id type fx fy fz x y z radius mux muy muz
#dump_modify dmp format "%d %d %1.23f %1.23f %1.23f %1.23f %1.23f %1.23f %1.23f %1.23f %1.23f %1.23f"

#fix	1 nve_group nve/sphere

reset_timestep 0
run	3
Setting up run at Mon May  8 19:07:12 2023

Memory usage per processor = 9.36265 Mbytes
    Step    Atoms         KinEng            CPU 
       0        3              0              0 
       3        3              0       52.24619 
Loop time of 52.2462 on 1 procs for 3 steps with 3 atoms, finish time Mon May  8 19:08:22 2023


Pair  time (%) = 1.9934e-05 (3.8154e-05)
Neigh time (%) = 0 (0)
Comm  time (%) = 4.725e-06 (9.04372e-06)
Outpt time (%) = 0.000603583 (0.00115527)
Other time (%) = 52.2456 (99.9988)

Nlocal:    3 ave 3 max 3 min
Histogram: 1 0 0 0 0 0 0 0 0 0
Nghost:    0 ave 0 max 0 min
Histogram: 1 0 0 0 0 0 0 0 0 0
Neighs:    2 ave 2 max 2 min
Histogram: 1 0 0 0 0 0 0 0 0 0
FullNghs: 4 ave 4 max 4 min
Histogram: 1 0 0 0 0 0 0 0 0 0

Total # of neighbors = 4
Ave neighs/atom = 1.33333
Neighbor list builds = 0
Dangerous builds = 0
undump	dmp
delete_atoms group  atom_j
Deleted 1 atoms, new total = 2
next c
#undump dmp_local
#uncompute deltas
jump in.mag loop
variable c loop 20 40
#separation between the atoms
variable sep equal ${c}*${atom_rad}/10
variable sep equal 23*${atom_rad}/10
variable sep equal 23*1/10
print "separation distance = ${sep}"
separation distance = 2.3

create_atoms	1 single 0 0 -${sep}
create_atoms	1 single 0 0 -2.3
Created 1 atoms
group           atom_j id 3
1 atoms in group atom_j

set     atom 3 diameter ${atom_dia}
set     atom 3 diameter 2
  1 settings made for diameter


# dump  dmp atom_j custom 1 parallel/post_par3_trial/dump_$c_*.liggghts id type fx fy fz x y z radius mux muy muz
dump  dmp atom_j custom 1 perpendicular/post_par3_trial/dump_$c_*.liggghts id type fx fy fz x y z radius mux muy muz
dump  dmp atom_j custom 1 perpendicular/post_par3_trial/dump_23_*.liggghts id type fx fy fz x y z radius mux muy muz
#dump_modify dmp format "%d %d %1.23f %1.23f %1.23f %1.23f %1.23f %1.23f %1.23f %1.23f %1.23f %1.23f"

#fix	1 nve_group nve/sphere

reset_timestep 0
run	3
Setting up run at Mon May  8 19:08:22 2023

Memory usage per processor = 9.36265 Mbytes
    Step    Atoms         KinEng            CPU 
       0        3              0              0 
       3        3              0      52.147205 
Loop time of 52.1472 on 1 procs for 3 steps with 3 atoms, finish time Mon May  8 19:09:32 2023


Pair  time (%) = 1.9748e-05 (3.78697e-05)
Neigh time (%) = 0 (0)
Comm  time (%) = 2.155e-06 (4.13253e-06)
Outpt time (%) = 0.000602372 (0.00115514)
Other time (%) = 52.1466 (99.9988)

Nlocal:    3 ave 3 max 3 min
Histogram: 1 0 0 0 0 0 0 0 0 0
Nghost:    0 ave 0 max 0 min
Histogram: 1 0 0 0 0 0 0 0 0 0
Neighs:    2 ave 2 max 2 min
Histogram: 1 0 0 0 0 0 0 0 0 0
FullNghs: 4 ave 4 max 4 min
Histogram: 1 0 0 0 0 0 0 0 0 0

Total # of neighbors = 4
Ave neighs/atom = 1.33333
Neighbor list builds = 0
Dangerous builds = 0
undump	dmp
delete_atoms group  atom_j
Deleted 1 atoms, new total = 2
next c
#undump dmp_local
#uncompute deltas
jump in.mag loop
variable c loop 20 40
#separation between the atoms
variable sep equal ${c}*${atom_rad}/10
variable sep equal 24*${atom_rad}/10
variable sep equal 24*1/10
print "separation distance = ${sep}"
separation distance = 2.4

create_atoms	1 single 0 0 -${sep}
create_atoms	1 single 0 0 -2.4
Created 1 atoms
group           atom_j id 3
1 atoms in group atom_j

set     atom 3 diameter ${atom_dia}
set     atom 3 diameter 2
  1 settings made for diameter


# dump  dmp atom_j custom 1 parallel/post_par3_trial/dump_$c_*.liggghts id type fx fy fz x y z radius mux muy muz
dump  dmp atom_j custom 1 perpendicular/post_par3_trial/dump_$c_*.liggghts id type fx fy fz x y z radius mux muy muz
dump  dmp atom_j custom 1 perpendicular/post_par3_trial/dump_24_*.liggghts id type fx fy fz x y z radius mux muy muz
#dump_modify dmp format "%d %d %1.23f %1.23f %1.23f %1.23f %1.23f %1.23f %1.23f %1.23f %1.23f %1.23f"

#fix	1 nve_group nve/sphere

reset_timestep 0
run	3
Setting up run at Mon May  8 19:09:32 2023

Memory usage per processor = 9.36265 Mbytes
    Step    Atoms         KinEng            CPU 
       0        3              0              0 
       3        3              0      49.992161 
Loop time of 49.9922 on 1 procs for 3 steps with 3 atoms, finish time Mon May  8 19:10:39 2023


Pair  time (%) = 2.5039e-05 (5.00858e-05)
Neigh time (%) = 0 (0)
Comm  time (%) = 3.14e-06 (6.28098e-06)
Outpt time (%) = 0.000703434 (0.00140709)
Other time (%) = 49.9915 (99.9985)

Nlocal:    3 ave 3 max 3 min
Histogram: 1 0 0 0 0 0 0 0 0 0
Nghost:    0 ave 0 max 0 min
Histogram: 1 0 0 0 0 0 0 0 0 0
Neighs:    2 ave 2 max 2 min
Histogram: 1 0 0 0 0 0 0 0 0 0
FullNghs: 4 ave 4 max 4 min
Histogram: 1 0 0 0 0 0 0 0 0 0

Total # of neighbors = 4
Ave neighs/atom = 1.33333
Neighbor list builds = 0
Dangerous builds = 0
undump	dmp
delete_atoms group  atom_j
Deleted 1 atoms, new total = 2
next c
#undump dmp_local
#uncompute deltas
jump in.mag loop
variable c loop 20 40
#separation between the atoms
variable sep equal ${c}*${atom_rad}/10
variable sep equal 25*${atom_rad}/10
variable sep equal 25*1/10
print "separation distance = ${sep}"
separation distance = 2.5

create_atoms	1 single 0 0 -${sep}
create_atoms	1 single 0 0 -2.5
Created 1 atoms
group           atom_j id 3
1 atoms in group atom_j

set     atom 3 diameter ${atom_dia}
set     atom 3 diameter 2
  1 settings made for diameter


# dump  dmp atom_j custom 1 parallel/post_par3_trial/dump_$c_*.liggghts id type fx fy fz x y z radius mux muy muz
dump  dmp atom_j custom 1 perpendicular/post_par3_trial/dump_$c_*.liggghts id type fx fy fz x y z radius mux muy muz
dump  dmp atom_j custom 1 perpendicular/post_par3_trial/dump_25_*.liggghts id type fx fy fz x y z radius mux muy muz
#dump_modify dmp format "%d %d %1.23f %1.23f %1.23f %1.23f %1.23f %1.23f %1.23f %1.23f %1.23f %1.23f"

#fix	1 nve_group nve/sphere

reset_timestep 0
run	3
Setting up run at Mon May  8 19:10:39 2023

Memory usage per processor = 9.36265 Mbytes
    Step    Atoms         KinEng            CPU 
       0        3              0              0 
       3        3              0      48.926034 
Loop time of 48.926 on 1 procs for 3 steps with 3 atoms, finish time Mon May  8 19:11:44 2023


Pair  time (%) = 1.7365e-05 (3.54923e-05)
Neigh time (%) = 0 (0)
Comm  time (%) = 2.364e-06 (4.83178e-06)
Outpt time (%) = 0.000426411 (0.000871542)
Other time (%) = 48.9256 (99.9991)

Nlocal:    3 ave 3 max 3 min
Histogram: 1 0 0 0 0 0 0 0 0 0
Nghost:    0 ave 0 max 0 min
Histogram: 1 0 0 0 0 0 0 0 0 0
Neighs:    2 ave 2 max 2 min
Histogram: 1 0 0 0 0 0 0 0 0 0
FullNghs: 4 ave 4 max 4 min
Histogram: 1 0 0 0 0 0 0 0 0 0

Total # of neighbors = 4
Ave neighs/atom = 1.33333
Neighbor list builds = 0
Dangerous builds = 0
undump	dmp
delete_atoms group  atom_j
Deleted 1 atoms, new total = 2
next c
#undump dmp_local
#uncompute deltas
jump in.mag loop
variable c loop 20 40
#separation between the atoms
variable sep equal ${c}*${atom_rad}/10
variable sep equal 26*${atom_rad}/10
variable sep equal 26*1/10
print "separation distance = ${sep}"
separation distance = 2.6

create_atoms	1 single 0 0 -${sep}
create_atoms	1 single 0 0 -2.6
Created 1 atoms
group           atom_j id 3
1 atoms in group atom_j

set     atom 3 diameter ${atom_dia}
set     atom 3 diameter 2
  1 settings made for diameter


# dump  dmp atom_j custom 1 parallel/post_par3_trial/dump_$c_*.liggghts id type fx fy fz x y z radius mux muy muz
dump  dmp atom_j custom 1 perpendicular/post_par3_trial/dump_$c_*.liggghts id type fx fy fz x y z radius mux muy muz
dump  dmp atom_j custom 1 perpendicular/post_par3_trial/dump_26_*.liggghts id type fx fy fz x y z radius mux muy muz
#dump_modify dmp format "%d %d %1.23f %1.23f %1.23f %1.23f %1.23f %1.23f %1.23f %1.23f %1.23f %1.23f"

#fix	1 nve_group nve/sphere

reset_timestep 0
run	3
Setting up run at Mon May  8 19:11:44 2023

Memory usage per processor = 9.36265 Mbytes
    Step    Atoms         KinEng            CPU 
       0        3              0              0 
       3        3              0      49.541896 
Loop time of 49.5419 on 1 procs for 3 steps with 3 atoms, finish time Mon May  8 19:12:51 2023


Pair  time (%) = 1.8307e-05 (3.69525e-05)
Neigh time (%) = 0 (0)
Comm  time (%) = 1.853e-06 (3.74027e-06)
Outpt time (%) = 0.000524973 (0.00105965)
Other time (%) = 49.5414 (99.9989)

Nlocal:    3 ave 3 max 3 min
Histogram: 1 0 0 0 0 0 0 0 0 0
Nghost:    0 ave 0 max 0 min
Histogram: 1 0 0 0 0 0 0 0 0 0
Neighs:    2 ave 2 max 2 min
Histogram: 1 0 0 0 0 0 0 0 0 0
FullNghs: 4 ave 4 max 4 min
Histogram: 1 0 0 0 0 0 0 0 0 0

Total # of neighbors = 4
Ave neighs/atom = 1.33333
Neighbor list builds = 0
Dangerous builds = 0
undump	dmp
delete_atoms group  atom_j
Deleted 1 atoms, new total = 2
next c
#undump dmp_local
#uncompute deltas
jump in.mag loop
variable c loop 20 40
#separation between the atoms
variable sep equal ${c}*${atom_rad}/10
variable sep equal 27*${atom_rad}/10
variable sep equal 27*1/10
print "separation distance = ${sep}"
separation distance = 2.7

create_atoms	1 single 0 0 -${sep}
create_atoms	1 single 0 0 -2.7
Created 1 atoms
group           atom_j id 3
1 atoms in group atom_j

set     atom 3 diameter ${atom_dia}
set     atom 3 diameter 2
  1 settings made for diameter


# dump  dmp atom_j custom 1 parallel/post_par3_trial/dump_$c_*.liggghts id type fx fy fz x y z radius mux muy muz
dump  dmp atom_j custom 1 perpendicular/post_par3_trial/dump_$c_*.liggghts id type fx fy fz x y z radius mux muy muz
dump  dmp atom_j custom 1 perpendicular/post_par3_trial/dump_27_*.liggghts id type fx fy fz x y z radius mux muy muz
#dump_modify dmp format "%d %d %1.23f %1.23f %1.23f %1.23f %1.23f %1.23f %1.23f %1.23f %1.23f %1.23f"

#fix	1 nve_group nve/sphere

reset_timestep 0
run	3
Setting up run at Mon May  8 19:12:51 2023

Memory usage per processor = 9.36265 Mbytes
    Step    Atoms         KinEng            CPU 
       0        3              0              0 
       3        3              0      49.524751 
Loop time of 49.5248 on 1 procs for 3 steps with 3 atoms, finish time Mon May  8 19:13:56 2023


Pair  time (%) = 1.5894e-05 (3.2093e-05)
Neigh time (%) = 0 (0)
Comm  time (%) = 2.494e-06 (5.03586e-06)
Outpt time (%) = 0.000620449 (0.0012528)
Other time (%) = 49.5242 (99.9987)

Nlocal:    3 ave 3 max 3 min
Histogram: 1 0 0 0 0 0 0 0 0 0
Nghost:    0 ave 0 max 0 min
Histogram: 1 0 0 0 0 0 0 0 0 0
Neighs:    2 ave 2 max 2 min
Histogram: 1 0 0 0 0 0 0 0 0 0
FullNghs: 4 ave 4 max 4 min
Histogram: 1 0 0 0 0 0 0 0 0 0

Total # of neighbors = 4
Ave neighs/atom = 1.33333
Neighbor list builds = 0
Dangerous builds = 0
undump	dmp
delete_atoms group  atom_j
Deleted 1 atoms, new total = 2
next c
#undump dmp_local
#uncompute deltas
jump in.mag loop
variable c loop 20 40
#separation between the atoms
variable sep equal ${c}*${atom_rad}/10
variable sep equal 28*${atom_rad}/10
variable sep equal 28*1/10
print "separation distance = ${sep}"
separation distance = 2.8

create_atoms	1 single 0 0 -${sep}
create_atoms	1 single 0 0 -2.8
Created 1 atoms
group           atom_j id 3
1 atoms in group atom_j

set     atom 3 diameter ${atom_dia}
set     atom 3 diameter 2
  1 settings made for diameter


# dump  dmp atom_j custom 1 parallel/post_par3_trial/dump_$c_*.liggghts id type fx fy fz x y z radius mux muy muz
dump  dmp atom_j custom 1 perpendicular/post_par3_trial/dump_$c_*.liggghts id type fx fy fz x y z radius mux muy muz
dump  dmp atom_j custom 1 perpendicular/post_par3_trial/dump_28_*.liggghts id type fx fy fz x y z radius mux muy muz
#dump_modify dmp format "%d %d %1.23f %1.23f %1.23f %1.23f %1.23f %1.23f %1.23f %1.23f %1.23f %1.23f"

#fix	1 nve_group nve/sphere

reset_timestep 0
run	3
Setting up run at Mon May  8 19:13:56 2023

Memory usage per processor = 9.36265 Mbytes
    Step    Atoms         KinEng            CPU 
       0        3              0              0 
       3        3              0       49.55303 
Loop time of 49.553 on 1 procs for 3 steps with 3 atoms, finish time Mon May  8 19:15:03 2023


Pair  time (%) = 2.7437e-05 (5.5369e-05)
Neigh time (%) = 0 (0)
Comm  time (%) = 3.628e-06 (7.32145e-06)
Outpt time (%) = 0.000551849 (0.00111365)
Other time (%) = 49.5525 (99.9988)

Nlocal:    3 ave 3 max 3 min
Histogram: 1 0 0 0 0 0 0 0 0 0
Nghost:    0 ave 0 max 0 min
Histogram: 1 0 0 0 0 0 0 0 0 0
Neighs:    2 ave 2 max 2 min
Histogram: 1 0 0 0 0 0 0 0 0 0
FullNghs: 4 ave 4 max 4 min
Histogram: 1 0 0 0 0 0 0 0 0 0

Total # of neighbors = 4
Ave neighs/atom = 1.33333
Neighbor list builds = 0
Dangerous builds = 0
undump	dmp
delete_atoms group  atom_j
Deleted 1 atoms, new total = 2
next c
#undump dmp_local
#uncompute deltas
jump in.mag loop
variable c loop 20 40
#separation between the atoms
variable sep equal ${c}*${atom_rad}/10
variable sep equal 29*${atom_rad}/10
variable sep equal 29*1/10
print "separation distance = ${sep}"
separation distance = 2.9

create_atoms	1 single 0 0 -${sep}
create_atoms	1 single 0 0 -2.9
Created 1 atoms
group           atom_j id 3
1 atoms in group atom_j

set     atom 3 diameter ${atom_dia}
set     atom 3 diameter 2
  1 settings made for diameter


# dump  dmp atom_j custom 1 parallel/post_par3_trial/dump_$c_*.liggghts id type fx fy fz x y z radius mux muy muz
dump  dmp atom_j custom 1 perpendicular/post_par3_trial/dump_$c_*.liggghts id type fx fy fz x y z radius mux muy muz
dump  dmp atom_j custom 1 perpendicular/post_par3_trial/dump_29_*.liggghts id type fx fy fz x y z radius mux muy muz
#dump_modify dmp format "%d %d %1.23f %1.23f %1.23f %1.23f %1.23f %1.23f %1.23f %1.23f %1.23f %1.23f"

#fix	1 nve_group nve/sphere

reset_timestep 0
run	3
Setting up run at Mon May  8 19:15:03 2023

Memory usage per processor = 9.36265 Mbytes
    Step    Atoms         KinEng            CPU 
       0        3              0              0 
       3        3              0      49.174774 
Loop time of 49.1748 on 1 procs for 3 steps with 3 atoms, finish time Mon May  8 19:16:08 2023


Pair  time (%) = 2.4161e-05 (4.91329e-05)
Neigh time (%) = 0 (0)
Comm  time (%) = 3.36e-06 (6.83277e-06)
Outpt time (%) = 0.000595594 (0.00121118)
Other time (%) = 49.1742 (99.9987)

Nlocal:    3 ave 3 max 3 min
Histogram: 1 0 0 0 0 0 0 0 0 0
Nghost:    0 ave 0 max 0 min
Histogram: 1 0 0 0 0 0 0 0 0 0
Neighs:    2 ave 2 max 2 min
Histogram: 1 0 0 0 0 0 0 0 0 0
FullNghs: 4 ave 4 max 4 min
Histogram: 1 0 0 0 0 0 0 0 0 0

Total # of neighbors = 4
Ave neighs/atom = 1.33333
Neighbor list builds = 0
Dangerous builds = 0
undump	dmp
delete_atoms group  atom_j
Deleted 1 atoms, new total = 2
next c
#undump dmp_local
#uncompute deltas
jump in.mag loop
variable c loop 20 40
#separation between the atoms
variable sep equal ${c}*${atom_rad}/10
variable sep equal 30*${atom_rad}/10
variable sep equal 30*1/10
print "separation distance = ${sep}"
separation distance = 3

create_atoms	1 single 0 0 -${sep}
create_atoms	1 single 0 0 -3
Created 1 atoms
group           atom_j id 3
1 atoms in group atom_j

set     atom 3 diameter ${atom_dia}
set     atom 3 diameter 2
  1 settings made for diameter


# dump  dmp atom_j custom 1 parallel/post_par3_trial/dump_$c_*.liggghts id type fx fy fz x y z radius mux muy muz
dump  dmp atom_j custom 1 perpendicular/post_par3_trial/dump_$c_*.liggghts id type fx fy fz x y z radius mux muy muz
dump  dmp atom_j custom 1 perpendicular/post_par3_trial/dump_30_*.liggghts id type fx fy fz x y z radius mux muy muz
#dump_modify dmp format "%d %d %1.23f %1.23f %1.23f %1.23f %1.23f %1.23f %1.23f %1.23f %1.23f %1.23f"

#fix	1 nve_group nve/sphere

reset_timestep 0
run	3
Setting up run at Mon May  8 19:16:08 2023

Memory usage per processor = 9.36265 Mbytes
    Step    Atoms         KinEng            CPU 
       0        3              0              0 
       3        3              0      49.748439 
Loop time of 49.7485 on 1 procs for 3 steps with 3 atoms, finish time Mon May  8 19:17:15 2023


Pair  time (%) = 3.2628e-05 (6.5586e-05)
Neigh time (%) = 0 (0)
Comm  time (%) = 3.771e-06 (7.58013e-06)
Outpt time (%) = 0.000684409 (0.00137574)
Other time (%) = 49.7477 (99.9986)

Nlocal:    3 ave 3 max 3 min
Histogram: 1 0 0 0 0 0 0 0 0 0
Nghost:    0 ave 0 max 0 min
Histogram: 1 0 0 0 0 0 0 0 0 0
Neighs:    2 ave 2 max 2 min
Histogram: 1 0 0 0 0 0 0 0 0 0
FullNghs: 4 ave 4 max 4 min
Histogram: 1 0 0 0 0 0 0 0 0 0

Total # of neighbors = 4
Ave neighs/atom = 1.33333
Neighbor list builds = 0
Dangerous builds = 0
undump	dmp
delete_atoms group  atom_j
Deleted 1 atoms, new total = 2
next c
#undump dmp_local
#uncompute deltas
jump in.mag loop
variable c loop 20 40
#separation between the atoms
variable sep equal ${c}*${atom_rad}/10
variable sep equal 31*${atom_rad}/10
variable sep equal 31*1/10
print "separation distance = ${sep}"
separation distance = 3.1

create_atoms	1 single 0 0 -${sep}
create_atoms	1 single 0 0 -3.1
Created 1 atoms
group           atom_j id 3
1 atoms in group atom_j

set     atom 3 diameter ${atom_dia}
set     atom 3 diameter 2
  1 settings made for diameter


# dump  dmp atom_j custom 1 parallel/post_par3_trial/dump_$c_*.liggghts id type fx fy fz x y z radius mux muy muz
dump  dmp atom_j custom 1 perpendicular/post_par3_trial/dump_$c_*.liggghts id type fx fy fz x y z radius mux muy muz
dump  dmp atom_j custom 1 perpendicular/post_par3_trial/dump_31_*.liggghts id type fx fy fz x y z radius mux muy muz
#dump_modify dmp format "%d %d %1.23f %1.23f %1.23f %1.23f %1.23f %1.23f %1.23f %1.23f %1.23f %1.23f"

#fix	1 nve_group nve/sphere

reset_timestep 0
run	3
Setting up run at Mon May  8 19:17:15 2023

Memory usage per processor = 9.36265 Mbytes
    Step    Atoms         KinEng            CPU 
       0        3              0              0 
       3        3              0      48.876663 
Loop time of 48.8767 on 1 procs for 3 steps with 3 atoms, finish time Mon May  8 19:18:20 2023


Pair  time (%) = 2.5814e-05 (5.28145e-05)
Neigh time (%) = 0 (0)
Comm  time (%) = 2.973e-06 (6.08265e-06)
Outpt time (%) = 0.000688443 (0.00140853)
Other time (%) = 48.876 (99.9985)

Nlocal:    3 ave 3 max 3 min
Histogram: 1 0 0 0 0 0 0 0 0 0
Nghost:    0 ave 0 max 0 min
Histogram: 1 0 0 0 0 0 0 0 0 0
Neighs:    2 ave 2 max 2 min
Histogram: 1 0 0 0 0 0 0 0 0 0
FullNghs: 4 ave 4 max 4 min
Histogram: 1 0 0 0 0 0 0 0 0 0

Total # of neighbors = 4
Ave neighs/atom = 1.33333
Neighbor list builds = 0
Dangerous builds = 0
undump	dmp
delete_atoms group  atom_j
Deleted 1 atoms, new total = 2
next c
#undump dmp_local
#uncompute deltas
jump in.mag loop
variable c loop 20 40
#separation between the atoms
variable sep equal ${c}*${atom_rad}/10
variable sep equal 32*${atom_rad}/10
variable sep equal 32*1/10
print "separation distance = ${sep}"
separation distance = 3.2

create_atoms	1 single 0 0 -${sep}
create_atoms	1 single 0 0 -3.2
Created 1 atoms
group           atom_j id 3
1 atoms in group atom_j

set     atom 3 diameter ${atom_dia}
set     atom 3 diameter 2
  1 settings made for diameter


# dump  dmp atom_j custom 1 parallel/post_par3_trial/dump_$c_*.liggghts id type fx fy fz x y z radius mux muy muz
dump  dmp atom_j custom 1 perpendicular/post_par3_trial/dump_$c_*.liggghts id type fx fy fz x y z radius mux muy muz
dump  dmp atom_j custom 1 perpendicular/post_par3_trial/dump_32_*.liggghts id type fx fy fz x y z radius mux muy muz
#dump_modify dmp format "%d %d %1.23f %1.23f %1.23f %1.23f %1.23f %1.23f %1.23f %1.23f %1.23f %1.23f"

#fix	1 nve_group nve/sphere

reset_timestep 0
run	3
Setting up run at Mon May  8 19:18:20 2023

Memory usage per processor = 9.36265 Mbytes
    Step    Atoms         KinEng            CPU 
       0        3              0              0 
       3        3              0      48.961223 
Loop time of 48.9612 on 1 procs for 3 steps with 3 atoms, finish time Mon May  8 19:19:25 2023


Pair  time (%) = 1.4436e-05 (2.94845e-05)
Neigh time (%) = 0 (0)
Comm  time (%) = 1.818e-06 (3.71314e-06)
Outpt time (%) = 0.000538391 (0.00109963)
Other time (%) = 48.9607 (99.9989)

Nlocal:    3 ave 3 max 3 min
Histogram: 1 0 0 0 0 0 0 0 0 0
Nghost:    0 ave 0 max 0 min
Histogram: 1 0 0 0 0 0 0 0 0 0
Neighs:    2 ave 2 max 2 min
Histogram: 1 0 0 0 0 0 0 0 0 0
FullNghs: 4 ave 4 max 4 min
Histogram: 1 0 0 0 0 0 0 0 0 0

Total # of neighbors = 4
Ave neighs/atom = 1.33333
Neighbor list builds = 0
Dangerous builds = 0
undump	dmp
delete_atoms group  atom_j
Deleted 1 atoms, new total = 2
next c
#undump dmp_local
#uncompute deltas
jump in.mag loop
variable c loop 20 40
#separation between the atoms
variable sep equal ${c}*${atom_rad}/10
variable sep equal 33*${atom_rad}/10
variable sep equal 33*1/10
print "separation distance = ${sep}"
separation distance = 3.3

create_atoms	1 single 0 0 -${sep}
create_atoms	1 single 0 0 -3.3
Created 1 atoms
group           atom_j id 3
1 atoms in group atom_j

set     atom 3 diameter ${atom_dia}
set     atom 3 diameter 2
  1 settings made for diameter


# dump  dmp atom_j custom 1 parallel/post_par3_trial/dump_$c_*.liggghts id type fx fy fz x y z radius mux muy muz
dump  dmp atom_j custom 1 perpendicular/post_par3_trial/dump_$c_*.liggghts id type fx fy fz x y z radius mux muy muz
dump  dmp atom_j custom 1 perpendicular/post_par3_trial/dump_33_*.liggghts id type fx fy fz x y z radius mux muy muz
#dump_modify dmp format "%d %d %1.23f %1.23f %1.23f %1.23f %1.23f %1.23f %1.23f %1.23f %1.23f %1.23f"

#fix	1 nve_group nve/sphere

reset_timestep 0
run	3
Setting up run at Mon May  8 19:19:25 2023

Memory usage per processor = 9.36265 Mbytes
    Step    Atoms         KinEng            CPU 
       0        3              0              0 
       3        3              0      49.129042 
Loop time of 49.1291 on 1 procs for 3 steps with 3 atoms, finish time Mon May  8 19:20:31 2023


Pair  time (%) = 1.8408e-05 (3.74687e-05)
Neigh time (%) = 0 (0)
Comm  time (%) = 2.593e-06 (5.27794e-06)
Outpt time (%) = 0.000330138 (0.000671981)
Other time (%) = 49.1287 (99.9993)

Nlocal:    3 ave 3 max 3 min
Histogram: 1 0 0 0 0 0 0 0 0 0
Nghost:    0 ave 0 max 0 min
Histogram: 1 0 0 0 0 0 0 0 0 0
Neighs:    2 ave 2 max 2 min
Histogram: 1 0 0 0 0 0 0 0 0 0
FullNghs: 4 ave 4 max 4 min
Histogram: 1 0 0 0 0 0 0 0 0 0

Total # of neighbors = 4
Ave neighs/atom = 1.33333
Neighbor list builds = 0
Dangerous builds = 0
undump	dmp
delete_atoms group  atom_j
Deleted 1 atoms, new total = 2
next c
#undump dmp_local
#uncompute deltas
jump in.mag loop
variable c loop 20 40
#separation between the atoms
variable sep equal ${c}*${atom_rad}/10
variable sep equal 34*${atom_rad}/10
variable sep equal 34*1/10
print "separation distance = ${sep}"
separation distance = 3.4

create_atoms	1 single 0 0 -${sep}
create_atoms	1 single 0 0 -3.4
Created 1 atoms
group           atom_j id 3
1 atoms in group atom_j

set     atom 3 diameter ${atom_dia}
set     atom 3 diameter 2
  1 settings made for diameter


# dump  dmp atom_j custom 1 parallel/post_par3_trial/dump_$c_*.liggghts id type fx fy fz x y z radius mux muy muz
dump  dmp atom_j custom 1 perpendicular/post_par3_trial/dump_$c_*.liggghts id type fx fy fz x y z radius mux muy muz
dump  dmp atom_j custom 1 perpendicular/post_par3_trial/dump_34_*.liggghts id type fx fy fz x y z radius mux muy muz
#dump_modify dmp format "%d %d %1.23f %1.23f %1.23f %1.23f %1.23f %1.23f %1.23f %1.23f %1.23f %1.23f"

#fix	1 nve_group nve/sphere

reset_timestep 0
run	3
Setting up run at Mon May  8 19:20:31 2023

Memory usage per processor = 9.36265 Mbytes
    Step    Atoms         KinEng            CPU 
       0        3              0              0 
       3        3              0      48.834638 
Loop time of 48.8347 on 1 procs for 3 steps with 3 atoms, finish time Mon May  8 19:21:36 2023


Pair  time (%) = 2.0109e-05 (4.11777e-05)
Neigh time (%) = 0 (0)
Comm  time (%) = 1.967e-06 (4.02788e-06)
Outpt time (%) = 0.000502852 (0.0010297)
Other time (%) = 48.8341 (99.9989)

Nlocal:    3 ave 3 max 3 min
Histogram: 1 0 0 0 0 0 0 0 0 0
Nghost:    0 ave 0 max 0 min
Histogram: 1 0 0 0 0 0 0 0 0 0
Neighs:    2 ave 2 max 2 min
Histogram: 1 0 0 0 0 0 0 0 0 0
FullNghs: 4 ave 4 max 4 min
Histogram: 1 0 0 0 0 0 0 0 0 0

Total # of neighbors = 4
Ave neighs/atom = 1.33333
Neighbor list builds = 0
Dangerous builds = 0
undump	dmp
delete_atoms group  atom_j
Deleted 1 atoms, new total = 2
next c
#undump dmp_local
#uncompute deltas
jump in.mag loop
variable c loop 20 40
#separation between the atoms
variable sep equal ${c}*${atom_rad}/10
variable sep equal 35*${atom_rad}/10
variable sep equal 35*1/10
print "separation distance = ${sep}"
separation distance = 3.5

create_atoms	1 single 0 0 -${sep}
create_atoms	1 single 0 0 -3.5
Created 1 atoms
group           atom_j id 3
1 atoms in group atom_j

set     atom 3 diameter ${atom_dia}
set     atom 3 diameter 2
  1 settings made for diameter


# dump  dmp atom_j custom 1 parallel/post_par3_trial/dump_$c_*.liggghts id type fx fy fz x y z radius mux muy muz
dump  dmp atom_j custom 1 perpendicular/post_par3_trial/dump_$c_*.liggghts id type fx fy fz x y z radius mux muy muz
dump  dmp atom_j custom 1 perpendicular/post_par3_trial/dump_35_*.liggghts id type fx fy fz x y z radius mux muy muz
#dump_modify dmp format "%d %d %1.23f %1.23f %1.23f %1.23f %1.23f %1.23f %1.23f %1.23f %1.23f %1.23f"

#fix	1 nve_group nve/sphere

reset_timestep 0
run	3
Setting up run at Mon May  8 19:21:36 2023

Memory usage per processor = 9.36265 Mbytes
    Step    Atoms         KinEng            CPU 
       0        3              0              0 
       3        3              0      49.641109 
Loop time of 49.6411 on 1 procs for 3 steps with 3 atoms, finish time Mon May  8 19:22:42 2023


Pair  time (%) = 2.3844e-05 (4.80328e-05)
Neigh time (%) = 0 (0)
Comm  time (%) = 3.308e-06 (6.66383e-06)
Outpt time (%) = 0.000459794 (0.000926236)
Other time (%) = 49.6406 (99.999)

Nlocal:    3 ave 3 max 3 min
Histogram: 1 0 0 0 0 0 0 0 0 0
Nghost:    0 ave 0 max 0 min
Histogram: 1 0 0 0 0 0 0 0 0 0
Neighs:    2 ave 2 max 2 min
Histogram: 1 0 0 0 0 0 0 0 0 0
FullNghs: 4 ave 4 max 4 min
Histogram: 1 0 0 0 0 0 0 0 0 0

Total # of neighbors = 4
Ave neighs/atom = 1.33333
Neighbor list builds = 0
Dangerous builds = 0
undump	dmp
delete_atoms group  atom_j
Deleted 1 atoms, new total = 2
next c
#undump dmp_local
#uncompute deltas
jump in.mag loop
variable c loop 20 40
#separation between the atoms
variable sep equal ${c}*${atom_rad}/10
variable sep equal 36*${atom_rad}/10
variable sep equal 36*1/10
print "separation distance = ${sep}"
separation distance = 3.6

create_atoms	1 single 0 0 -${sep}
create_atoms	1 single 0 0 -3.6
Created 1 atoms
group           atom_j id 3
1 atoms in group atom_j

set     atom 3 diameter ${atom_dia}
set     atom 3 diameter 2
  1 settings made for diameter


# dump  dmp atom_j custom 1 parallel/post_par3_trial/dump_$c_*.liggghts id type fx fy fz x y z radius mux muy muz
dump  dmp atom_j custom 1 perpendicular/post_par3_trial/dump_$c_*.liggghts id type fx fy fz x y z radius mux muy muz
dump  dmp atom_j custom 1 perpendicular/post_par3_trial/dump_36_*.liggghts id type fx fy fz x y z radius mux muy muz
#dump_modify dmp format "%d %d %1.23f %1.23f %1.23f %1.23f %1.23f %1.23f %1.23f %1.23f %1.23f %1.23f"

#fix	1 nve_group nve/sphere

reset_timestep 0
run	3
Setting up run at Mon May  8 19:22:42 2023

Memory usage per processor = 9.36265 Mbytes
    Step    Atoms         KinEng            CPU 
       0        3              0              0 
       3        3              0      49.270043 
Loop time of 49.2701 on 1 procs for 3 steps with 3 atoms, finish time Mon May  8 19:23:48 2023


Pair  time (%) = 2.2344e-05 (4.535e-05)
Neigh time (%) = 0 (0)
Comm  time (%) = 2.049e-06 (4.15871e-06)
Outpt time (%) = 0.000430484 (0.000873723)
Other time (%) = 49.2696 (99.9991)

Nlocal:    3 ave 3 max 3 min
Histogram: 1 0 0 0 0 0 0 0 0 0
Nghost:    0 ave 0 max 0 min
Histogram: 1 0 0 0 0 0 0 0 0 0
Neighs:    2 ave 2 max 2 min
Histogram: 1 0 0 0 0 0 0 0 0 0
FullNghs: 4 ave 4 max 4 min
Histogram: 1 0 0 0 0 0 0 0 0 0

Total # of neighbors = 4
Ave neighs/atom = 1.33333
Neighbor list builds = 0
Dangerous builds = 0
undump	dmp
delete_atoms group  atom_j
Deleted 1 atoms, new total = 2
next c
#undump dmp_local
#uncompute deltas
jump in.mag loop
variable c loop 20 40
#separation between the atoms
variable sep equal ${c}*${atom_rad}/10
variable sep equal 37*${atom_rad}/10
variable sep equal 37*1/10
print "separation distance = ${sep}"
separation distance = 3.7

create_atoms	1 single 0 0 -${sep}
create_atoms	1 single 0 0 -3.7
Created 1 atoms
group           atom_j id 3
1 atoms in group atom_j

set     atom 3 diameter ${atom_dia}
set     atom 3 diameter 2
  1 settings made for diameter


# dump  dmp atom_j custom 1 parallel/post_par3_trial/dump_$c_*.liggghts id type fx fy fz x y z radius mux muy muz
dump  dmp atom_j custom 1 perpendicular/post_par3_trial/dump_$c_*.liggghts id type fx fy fz x y z radius mux muy muz
dump  dmp atom_j custom 1 perpendicular/post_par3_trial/dump_37_*.liggghts id type fx fy fz x y z radius mux muy muz
#dump_modify dmp format "%d %d %1.23f %1.23f %1.23f %1.23f %1.23f %1.23f %1.23f %1.23f %1.23f %1.23f"

#fix	1 nve_group nve/sphere

reset_timestep 0
run	3
Setting up run at Mon May  8 19:23:48 2023

Memory usage per processor = 9.36265 Mbytes
    Step    Atoms         KinEng            CPU 
       0        3              0              0 
       3        3              0      49.454961 
Loop time of 49.455 on 1 procs for 3 steps with 3 atoms, finish time Mon May  8 19:24:54 2023


Pair  time (%) = 2.5859e-05 (5.2288e-05)
Neigh time (%) = 0 (0)
Comm  time (%) = 2.249e-06 (4.54757e-06)
Outpt time (%) = 0.000573688 (0.00116002)
Other time (%) = 49.4544 (99.9988)

Nlocal:    3 ave 3 max 3 min
Histogram: 1 0 0 0 0 0 0 0 0 0
Nghost:    0 ave 0 max 0 min
Histogram: 1 0 0 0 0 0 0 0 0 0
Neighs:    2 ave 2 max 2 min
Histogram: 1 0 0 0 0 0 0 0 0 0
FullNghs: 4 ave 4 max 4 min
Histogram: 1 0 0 0 0 0 0 0 0 0

Total # of neighbors = 4
Ave neighs/atom = 1.33333
Neighbor list builds = 0
Dangerous builds = 0
undump	dmp
delete_atoms group  atom_j
Deleted 1 atoms, new total = 2
next c
#undump dmp_local
#uncompute deltas
jump in.mag loop
variable c loop 20 40
#separation between the atoms
variable sep equal ${c}*${atom_rad}/10
variable sep equal 38*${atom_rad}/10
variable sep equal 38*1/10
print "separation distance = ${sep}"
separation distance = 3.8

create_atoms	1 single 0 0 -${sep}
create_atoms	1 single 0 0 -3.8
Created 1 atoms
group           atom_j id 3
1 atoms in group atom_j

set     atom 3 diameter ${atom_dia}
set     atom 3 diameter 2
  1 settings made for diameter


# dump  dmp atom_j custom 1 parallel/post_par3_trial/dump_$c_*.liggghts id type fx fy fz x y z radius mux muy muz
dump  dmp atom_j custom 1 perpendicular/post_par3_trial/dump_$c_*.liggghts id type fx fy fz x y z radius mux muy muz
dump  dmp atom_j custom 1 perpendicular/post_par3_trial/dump_38_*.liggghts id type fx fy fz x y z radius mux muy muz
#dump_modify dmp format "%d %d %1.23f %1.23f %1.23f %1.23f %1.23f %1.23f %1.23f %1.23f %1.23f %1.23f"

#fix	1 nve_group nve/sphere

reset_timestep 0
run	3
Setting up run at Mon May  8 19:24:54 2023

Memory usage per processor = 9.36265 Mbytes
    Step    Atoms         KinEng            CPU 
       0        3              0              0 
       3        3              0      49.305026 
Loop time of 49.3051 on 1 procs for 3 steps with 3 atoms, finish time Mon May  8 19:26:00 2023


Pair  time (%) = 3.025e-05 (6.13527e-05)
Neigh time (%) = 0 (0)
Comm  time (%) = 4.567e-06 (9.26274e-06)
Outpt time (%) = 0.000692969 (0.00140547)
Other time (%) = 49.3043 (99.9985)

Nlocal:    3 ave 3 max 3 min
Histogram: 1 0 0 0 0 0 0 0 0 0
Nghost:    0 ave 0 max 0 min
Histogram: 1 0 0 0 0 0 0 0 0 0
Neighs:    2 ave 2 max 2 min
Histogram: 1 0 0 0 0 0 0 0 0 0
FullNghs: 4 ave 4 max 4 min
Histogram: 1 0 0 0 0 0 0 0 0 0

Total # of neighbors = 4
Ave neighs/atom = 1.33333
Neighbor list builds = 0
Dangerous builds = 0
undump	dmp
delete_atoms group  atom_j
Deleted 1 atoms, new total = 2
next c
#undump dmp_local
#uncompute deltas
jump in.mag loop
variable c loop 20 40
#separation between the atoms
variable sep equal ${c}*${atom_rad}/10
variable sep equal 39*${atom_rad}/10
variable sep equal 39*1/10
print "separation distance = ${sep}"
separation distance = 3.9

create_atoms	1 single 0 0 -${sep}
create_atoms	1 single 0 0 -3.9
Created 1 atoms
group           atom_j id 3
1 atoms in group atom_j

set     atom 3 diameter ${atom_dia}
set     atom 3 diameter 2
  1 settings made for diameter


# dump  dmp atom_j custom 1 parallel/post_par3_trial/dump_$c_*.liggghts id type fx fy fz x y z radius mux muy muz
dump  dmp atom_j custom 1 perpendicular/post_par3_trial/dump_$c_*.liggghts id type fx fy fz x y z radius mux muy muz
dump  dmp atom_j custom 1 perpendicular/post_par3_trial/dump_39_*.liggghts id type fx fy fz x y z radius mux muy muz
#dump_modify dmp format "%d %d %1.23f %1.23f %1.23f %1.23f %1.23f %1.23f %1.23f %1.23f %1.23f %1.23f"

#fix	1 nve_group nve/sphere

reset_timestep 0
run	3
Setting up run at Mon May  8 19:26:00 2023

Memory usage per processor = 9.36265 Mbytes
    Step    Atoms         KinEng            CPU 
       0        3              0              0 
       3        3              0      50.278527 
Loop time of 50.2786 on 1 procs for 3 steps with 3 atoms, finish time Mon May  8 19:27:07 2023


Pair  time (%) = 2.5735e-05 (5.11848e-05)
Neigh time (%) = 0 (0)
Comm  time (%) = 2.931e-06 (5.82952e-06)
Outpt time (%) = 0.000625475 (0.00124402)
Other time (%) = 50.2779 (99.9987)

Nlocal:    3 ave 3 max 3 min
Histogram: 1 0 0 0 0 0 0 0 0 0
Nghost:    0 ave 0 max 0 min
Histogram: 1 0 0 0 0 0 0 0 0 0
Neighs:    2 ave 2 max 2 min
Histogram: 1 0 0 0 0 0 0 0 0 0
FullNghs: 4 ave 4 max 4 min
Histogram: 1 0 0 0 0 0 0 0 0 0

Total # of neighbors = 4
Ave neighs/atom = 1.33333
Neighbor list builds = 0
Dangerous builds = 0
undump	dmp
delete_atoms group  atom_j
Deleted 1 atoms, new total = 2
next c
#undump dmp_local
#uncompute deltas
jump in.mag loop
variable c loop 20 40
#separation between the atoms
variable sep equal ${c}*${atom_rad}/10
variable sep equal 40*${atom_rad}/10
variable sep equal 40*1/10
print "separation distance = ${sep}"
separation distance = 4

create_atoms	1 single 0 0 -${sep}
create_atoms	1 single 0 0 -4
Created 1 atoms
group           atom_j id 3
1 atoms in group atom_j

set     atom 3 diameter ${atom_dia}
set     atom 3 diameter 2
  1 settings made for diameter


# dump  dmp atom_j custom 1 parallel/post_par3_trial/dump_$c_*.liggghts id type fx fy fz x y z radius mux muy muz
dump  dmp atom_j custom 1 perpendicular/post_par3_trial/dump_$c_*.liggghts id type fx fy fz x y z radius mux muy muz
dump  dmp atom_j custom 1 perpendicular/post_par3_trial/dump_40_*.liggghts id type fx fy fz x y z radius mux muy muz
#dump_modify dmp format "%d %d %1.23f %1.23f %1.23f %1.23f %1.23f %1.23f %1.23f %1.23f %1.23f %1.23f"

#fix	1 nve_group nve/sphere

reset_timestep 0
run	3
Setting up run at Mon May  8 19:27:07 2023

Memory usage per processor = 9.36265 Mbytes
    Step    Atoms         KinEng            CPU 
       0        3              0              0 
       3        3              0      49.091987 
Loop time of 49.092 on 1 procs for 3 steps with 3 atoms, finish time Mon May  8 19:28:12 2023


Pair  time (%) = 2.32e-05 (4.72582e-05)
Neigh time (%) = 0 (0)
Comm  time (%) = 4.623e-06 (9.41701e-06)
Outpt time (%) = 0.000492455 (0.00100313)
Other time (%) = 49.0915 (99.9989)

Nlocal:    3 ave 3 max 3 min
Histogram: 1 0 0 0 0 0 0 0 0 0
Nghost:    0 ave 0 max 0 min
Histogram: 1 0 0 0 0 0 0 0 0 0
Neighs:    2 ave 2 max 2 min
Histogram: 1 0 0 0 0 0 0 0 0 0
FullNghs: 4 ave 4 max 4 min
Histogram: 1 0 0 0 0 0 0 0 0 0

Total # of neighbors = 4
Ave neighs/atom = 1.33333
Neighbor list builds = 0
Dangerous builds = 0
undump	dmp
delete_atoms group  atom_j
Deleted 1 atoms, new total = 2
next c
#undump dmp_local
#uncompute deltas
jump in.mag loop
