LIGGGHTS (Version LIGGGHTS-PUBLIC 3.8.0, compiled 2023-02-12-17:32:55 by aerospacenerd, git commit unknown)
atom_style	hybrid granular dipole
boundary	f f f
newton		off
atom_modify	sort 10000 0

communicate	single vel yes
units		si
processors	1 1 1

variable reg_dim equal 10 #meters

region		reg block -${reg_dim} ${reg_dim} -${reg_dim} ${reg_dim} -${reg_dim} ${reg_dim} units box
region		reg block -10 ${reg_dim} -${reg_dim} ${reg_dim} -${reg_dim} ${reg_dim} units box
region		reg block -10 10 -${reg_dim} ${reg_dim} -${reg_dim} ${reg_dim} units box
region		reg block -10 10 -10 ${reg_dim} -${reg_dim} ${reg_dim} units box
region		reg block -10 10 -10 10 -${reg_dim} ${reg_dim} units box
region		reg block -10 10 -10 10 -10 ${reg_dim} units box
region		reg block -10 10 -10 10 -10 10 units box
create_box	1 reg
Created orthogonal box = (-10 -10 -10) to (10 10 10)
  1 by 1 by 1 MPI processor grid
neighbor	2 bin
neigh_modify	delay 0 every 1

hard_particles	yes


fix 		m1 all property/global youngsModulus peratomtype 6e6
fix 		m2 all property/global poissonsRatio peratomtype 0.278
fix 		m3 all property/global coefficientRestitution peratomtypepair 1 0.06
fix 		m4 all property/global coefficientFriction peratomtypepair 1 0.4
fix 		m6 all property/global cohesionEnergyDensity peratomtypepair 1 0.01

fix m7 all property/global magneticSusceptibility peratomtype 1


pair_style gran model hertz tangential history #cohesion sjkr
pair_coeff	* *

timestep	1e-10 # seconds

#index of simulations
# variable a loop 10
#radius of atoms
variable atom_rad equal 1.0 #meters
#diameter of atoms
variable atom_dia equal 2*${atom_rad}
variable atom_dia equal 2*1

# Define loops

label loop
variable c loop 20 44
#separation between the atoms
variable sep equal ${c}*${atom_rad}/10
variable sep equal 20*${atom_rad}/10
variable sep equal 20*1/10

create_atoms	1 single 0 0 -${sep}
create_atoms	1 single 0 0 -2
Created 1 atoms
create_atoms	1 single 0 0 0
Created 1 atoms

create_atoms	1 single 0 0 ${atom_dia}
create_atoms	1 single 0 0 2
Created 1 atoms
group           atom_j id 3
1 atoms in group atom_j

set		atom 1 diameter ${atom_dia}
set		atom 1 diameter 2
  1 settings made for diameter
set     atom 2 diameter ${atom_dia}
set     atom 2 diameter 2
  1 settings made for diameter
set     atom 3 diameter ${atom_dia}
set     atom 3 diameter 2
  1 settings made for diameter


#                       x   y   z
fix	mag all magnetic    0   1   0

dump    dmp all custom 1 post/dump_$c_*.liggghts id type fx fy fz x y z radius mux muy muz
dump    dmp all custom 1 post/dump_20_*.liggghts id type fx fy fz x y z radius mux muy muz
#dump_modify dmp format "%d %d %1.23f %1.23f %1.23f %1.23f %1.23f %1.23f %1.23f %1.23f %1.23f %1.23f"

#fix	1 nve_group nve/sphere

run	2
Setting up run at Sat Feb 25 23:37:24 2023

Memory usage per processor = 9.36283 Mbytes
    Step    Atoms         KinEng            CPU 
       0        3              0              0 
       2        3              0      48.991093 
Loop time of 48.9911 on 1 procs for 2 steps with 3 atoms, finish time Sat Feb 25 23:38:38 2023


Pair  time (%) = 4.842e-06 (9.88343e-06)
Neigh time (%) = 0 (0)
Comm  time (%) = 5.81e-07 (1.18593e-06)
Outpt time (%) = 0.000249393 (0.000509058)
Other time (%) = 48.9908 (99.9995)

Nlocal:    3 ave 3 max 3 min
Histogram: 1 0 0 0 0 0 0 0 0 0
Nghost:    0 ave 0 max 0 min
Histogram: 1 0 0 0 0 0 0 0 0 0
Neighs:    3 ave 3 max 3 min
Histogram: 1 0 0 0 0 0 0 0 0 0
FullNghs: 6 ave 6 max 6 min
Histogram: 1 0 0 0 0 0 0 0 0 0

Total # of neighbors = 6
Ave neighs/atom = 2
Neighbor list builds = 0
Dangerous builds = 0

reset_timestep 0
run	2
Setting up run at Sat Feb 25 23:38:38 2023

Memory usage per processor = 9.36283 Mbytes
    Step    Atoms         KinEng            CPU 
       0        3              0              0 
       2        3              0      52.115506 
Loop time of 52.1155 on 1 procs for 2 steps with 3 atoms, finish time Sat Feb 25 23:39:59 2023


Pair  time (%) = 5.672e-06 (1.08835e-05)
Neigh time (%) = 0 (0)
Comm  time (%) = 6.48e-07 (1.24339e-06)
Outpt time (%) = 0.000279652 (0.0005366)
Other time (%) = 52.1152 (99.9995)

Nlocal:    3 ave 3 max 3 min
Histogram: 1 0 0 0 0 0 0 0 0 0
Nghost:    0 ave 0 max 0 min
Histogram: 1 0 0 0 0 0 0 0 0 0
Neighs:    3 ave 3 max 3 min
Histogram: 1 0 0 0 0 0 0 0 0 0
FullNghs: 6 ave 6 max 6 min
Histogram: 1 0 0 0 0 0 0 0 0 0

Total # of neighbors = 6
Ave neighs/atom = 2
Neighbor list builds = 0
Dangerous builds = 0
