LIGGGHTS (Version LIGGGHTS-PUBLIC 3.8.0, compiled 2023-04-03-20:29:36 by anmol, git commit unknown)
atom_style	hybrid granular dipole
boundary	f f f
newton		off
atom_modify	sort 10000 0

communicate	single vel yes
units		si
processors	1 1 1

variable reg_dim equal 10 #meters

region		reg block -${reg_dim} ${reg_dim} -${reg_dim} ${reg_dim} -${reg_dim} ${reg_dim} units box
region		reg block -10 ${reg_dim} -${reg_dim} ${reg_dim} -${reg_dim} ${reg_dim} units box
region		reg block -10 10 -${reg_dim} ${reg_dim} -${reg_dim} ${reg_dim} units box
region		reg block -10 10 -10 ${reg_dim} -${reg_dim} ${reg_dim} units box
region		reg block -10 10 -10 10 -${reg_dim} ${reg_dim} units box
region		reg block -10 10 -10 10 -10 ${reg_dim} units box
region		reg block -10 10 -10 10 -10 10 units box
create_box	1 reg
Created orthogonal box = (-10 -10 -10) to (10 10 10)
  1 by 1 by 1 MPI processor grid
neighbor	2 bin
neigh_modify	delay 0 every 1

hard_particles	yes


fix 		m1 all property/global youngsModulus peratomtype 6e6
fix 		m2 all property/global poissonsRatio peratomtype 0.278
fix 		m3 all property/global coefficientRestitution peratomtypepair 1 0.06
fix 		m4 all property/global coefficientFriction peratomtypepair 1 0.4
fix 		m6 all property/global cohesionEnergyDensity peratomtypepair 1 0.01

fix m7 all property/global magneticSusceptibility peratomtype 1


pair_style gran model hertz tangential history #cohesion sjkr
pair_coeff	* *

timestep	1e-10 # seconds

#index of simulations
# variable a loop 10
#radius of atoms
variable atom_rad equal 1.0 #meters
#diameter of atoms
variable atom_dia equal 2*${atom_rad}
variable atom_dia equal 2*1


create_atoms	1 single 0 0 0
Created 1 atoms
create_atoms	1 single 0 0 ${atom_dia}
create_atoms	1 single 0 0 2
Created 1 atoms
set		atom 1 diameter ${atom_dia}
set		atom 1 diameter 2
  1 settings made for diameter
set     atom 2 diameter ${atom_dia}
set     atom 2 diameter 2
  1 settings made for diameter

# Magnetic force is gauss (B mag field)
#                       x   y   z
fix	mag all magnetic    0   1   0

# Define loops

label loop
variable c loop 20 40
#separation between the atoms
variable sep equal ${c}*${atom_rad}/10
variable sep equal 20*${atom_rad}/10
variable sep equal 20*1/10
print "separation distance = ${sep}"
separation distance = 2

create_atoms	1 single 0 0 -${sep}
create_atoms	1 single 0 0 -2
Created 1 atoms
group           atom_j id 3
1 atoms in group atom_j

set     atom 3 diameter ${atom_dia}
set     atom 3 diameter 2
  1 settings made for diameter


dump  dmp atom_j custom 1 post_par3_SHA_MDM_20_betachange/dump_$c_*.liggghts id type fx fy fz x y z radius mux muy muz
dump  dmp atom_j custom 1 post_par3_SHA_MDM_20_betachange/dump_20_*.liggghts id type fx fy fz x y z radius mux muy muz
#dump_modify dmp format "%d %d %1.23f %1.23f %1.23f %1.23f %1.23f %1.23f %1.23f %1.23f %1.23f %1.23f"

#fix	1 nve_group nve/sphere

reset_timestep 0
run	2
Setting up run at Mon Apr  3 21:43:43 2023

Memory usage per processor = 9.36264 Mbytes
    Step    Atoms         KinEng            CPU 
       0        3           -nan              0 
       2        3              0      277.58392 
Loop time of 277.584 on 1 procs for 2 steps with 3 atoms, finish time Mon Apr  3 21:50:38 2023


Pair  time (%) = 6.581e-06 (2.37081e-06)
Neigh time (%) = 0 (0)
Comm  time (%) = 9.55e-07 (3.4404e-07)
Outpt time (%) = 0.000274655 (9.89448e-05)
Other time (%) = 277.584 (99.9999)

Nlocal:    3 ave 3 max 3 min
Histogram: 1 0 0 0 0 0 0 0 0 0
Nghost:    0 ave 0 max 0 min
Histogram: 1 0 0 0 0 0 0 0 0 0
Neighs:    3 ave 3 max 3 min
Histogram: 1 0 0 0 0 0 0 0 0 0
FullNghs: 6 ave 6 max 6 min
Histogram: 1 0 0 0 0 0 0 0 0 0

Total # of neighbors = 6
Ave neighs/atom = 2
Neighbor list builds = 0
Dangerous builds = 0
undump	dmp
delete_atoms group  atom_j
Deleted 1 atoms, new total = 2
next c
#undump dmp_local
#uncompute deltas
jump in.mag loop
variable c loop 20 40
#separation between the atoms
variable sep equal ${c}*${atom_rad}/10
variable sep equal 21*${atom_rad}/10
variable sep equal 21*1/10
print "separation distance = ${sep}"
separation distance = 2.1

create_atoms	1 single 0 0 -${sep}
create_atoms	1 single 0 0 -2.1
Created 1 atoms
group           atom_j id 3
1 atoms in group atom_j

set     atom 3 diameter ${atom_dia}
set     atom 3 diameter 2
  1 settings made for diameter


dump  dmp atom_j custom 1 post_par3_SHA_MDM_20_betachange/dump_$c_*.liggghts id type fx fy fz x y z radius mux muy muz
dump  dmp atom_j custom 1 post_par3_SHA_MDM_20_betachange/dump_21_*.liggghts id type fx fy fz x y z radius mux muy muz
#dump_modify dmp format "%d %d %1.23f %1.23f %1.23f %1.23f %1.23f %1.23f %1.23f %1.23f %1.23f %1.23f"

#fix	1 nve_group nve/sphere

reset_timestep 0
run	2
Setting up run at Mon Apr  3 21:50:38 2023

Memory usage per processor = 9.36265 Mbytes
    Step    Atoms         KinEng            CPU 
       0        3              0              0 
       2        3              0      186.72206 
Loop time of 186.722 on 1 procs for 2 steps with 3 atoms, finish time Mon Apr  3 21:55:18 2023


Pair  time (%) = 2.5421e-05 (1.36144e-05)
Neigh time (%) = 0 (0)
Comm  time (%) = 8.24e-07 (4.41298e-07)
Outpt time (%) = 0.000241097 (0.000129121)
Other time (%) = 186.722 (99.9999)

Nlocal:    3 ave 3 max 3 min
Histogram: 1 0 0 0 0 0 0 0 0 0
Nghost:    0 ave 0 max 0 min
Histogram: 1 0 0 0 0 0 0 0 0 0
Neighs:    2 ave 2 max 2 min
Histogram: 1 0 0 0 0 0 0 0 0 0
FullNghs: 4 ave 4 max 4 min
Histogram: 1 0 0 0 0 0 0 0 0 0

Total # of neighbors = 4
Ave neighs/atom = 1.33333
Neighbor list builds = 0
Dangerous builds = 0
undump	dmp
delete_atoms group  atom_j
Deleted 1 atoms, new total = 2
next c
#undump dmp_local
#uncompute deltas
jump in.mag loop
variable c loop 20 40
#separation between the atoms
variable sep equal ${c}*${atom_rad}/10
variable sep equal 22*${atom_rad}/10
variable sep equal 22*1/10
print "separation distance = ${sep}"
separation distance = 2.2

create_atoms	1 single 0 0 -${sep}
create_atoms	1 single 0 0 -2.2
Created 1 atoms
group           atom_j id 3
1 atoms in group atom_j

set     atom 3 diameter ${atom_dia}
set     atom 3 diameter 2
  1 settings made for diameter


dump  dmp atom_j custom 1 post_par3_SHA_MDM_20_betachange/dump_$c_*.liggghts id type fx fy fz x y z radius mux muy muz
dump  dmp atom_j custom 1 post_par3_SHA_MDM_20_betachange/dump_22_*.liggghts id type fx fy fz x y z radius mux muy muz
#dump_modify dmp format "%d %d %1.23f %1.23f %1.23f %1.23f %1.23f %1.23f %1.23f %1.23f %1.23f %1.23f"

#fix	1 nve_group nve/sphere

reset_timestep 0
run	2
Setting up run at Mon Apr  3 21:55:18 2023

Memory usage per processor = 9.36265 Mbytes
    Step    Atoms         KinEng            CPU 
       0        3              0              0 
       2        3              0      187.35996 
Loop time of 187.36 on 1 procs for 2 steps with 3 atoms, finish time Mon Apr  3 21:59:59 2023


Pair  time (%) = 1.0948e-05 (5.8433e-06)
Neigh time (%) = 0 (0)
Comm  time (%) = 1.447e-06 (7.7231e-07)
Outpt time (%) = 0.000394986 (0.000210817)
Other time (%) = 187.36 (99.9998)

Nlocal:    3 ave 3 max 3 min
Histogram: 1 0 0 0 0 0 0 0 0 0
Nghost:    0 ave 0 max 0 min
Histogram: 1 0 0 0 0 0 0 0 0 0
Neighs:    2 ave 2 max 2 min
Histogram: 1 0 0 0 0 0 0 0 0 0
FullNghs: 4 ave 4 max 4 min
Histogram: 1 0 0 0 0 0 0 0 0 0

Total # of neighbors = 4
Ave neighs/atom = 1.33333
Neighbor list builds = 0
Dangerous builds = 0
undump	dmp
delete_atoms group  atom_j
Deleted 1 atoms, new total = 2
next c
#undump dmp_local
#uncompute deltas
jump in.mag loop
variable c loop 20 40
#separation between the atoms
variable sep equal ${c}*${atom_rad}/10
variable sep equal 23*${atom_rad}/10
variable sep equal 23*1/10
print "separation distance = ${sep}"
separation distance = 2.3

create_atoms	1 single 0 0 -${sep}
create_atoms	1 single 0 0 -2.3
Created 1 atoms
group           atom_j id 3
1 atoms in group atom_j

set     atom 3 diameter ${atom_dia}
set     atom 3 diameter 2
  1 settings made for diameter


dump  dmp atom_j custom 1 post_par3_SHA_MDM_20_betachange/dump_$c_*.liggghts id type fx fy fz x y z radius mux muy muz
dump  dmp atom_j custom 1 post_par3_SHA_MDM_20_betachange/dump_23_*.liggghts id type fx fy fz x y z radius mux muy muz
#dump_modify dmp format "%d %d %1.23f %1.23f %1.23f %1.23f %1.23f %1.23f %1.23f %1.23f %1.23f %1.23f"

#fix	1 nve_group nve/sphere

reset_timestep 0
run	2
Setting up run at Mon Apr  3 21:59:59 2023

Memory usage per processor = 9.36265 Mbytes
    Step    Atoms         KinEng            CPU 
       0        3              0              0 
       2        3              0      187.67159 
Loop time of 187.672 on 1 procs for 2 steps with 3 atoms, finish time Mon Apr  3 22:04:41 2023


Pair  time (%) = 5.775e-06 (3.07718e-06)
Neigh time (%) = 0 (0)
Comm  time (%) = 8.34e-07 (4.44393e-07)
Outpt time (%) = 0.000296859 (0.00015818)
Other time (%) = 187.671 (99.9998)

Nlocal:    3 ave 3 max 3 min
Histogram: 1 0 0 0 0 0 0 0 0 0
Nghost:    0 ave 0 max 0 min
Histogram: 1 0 0 0 0 0 0 0 0 0
Neighs:    2 ave 2 max 2 min
Histogram: 1 0 0 0 0 0 0 0 0 0
FullNghs: 4 ave 4 max 4 min
Histogram: 1 0 0 0 0 0 0 0 0 0

Total # of neighbors = 4
Ave neighs/atom = 1.33333
Neighbor list builds = 0
Dangerous builds = 0
undump	dmp
delete_atoms group  atom_j
Deleted 1 atoms, new total = 2
next c
#undump dmp_local
#uncompute deltas
jump in.mag loop
variable c loop 20 40
#separation between the atoms
variable sep equal ${c}*${atom_rad}/10
variable sep equal 24*${atom_rad}/10
variable sep equal 24*1/10
print "separation distance = ${sep}"
separation distance = 2.4

create_atoms	1 single 0 0 -${sep}
create_atoms	1 single 0 0 -2.4
Created 1 atoms
group           atom_j id 3
1 atoms in group atom_j

set     atom 3 diameter ${atom_dia}
set     atom 3 diameter 2
  1 settings made for diameter


dump  dmp atom_j custom 1 post_par3_SHA_MDM_20_betachange/dump_$c_*.liggghts id type fx fy fz x y z radius mux muy muz
dump  dmp atom_j custom 1 post_par3_SHA_MDM_20_betachange/dump_24_*.liggghts id type fx fy fz x y z radius mux muy muz
#dump_modify dmp format "%d %d %1.23f %1.23f %1.23f %1.23f %1.23f %1.23f %1.23f %1.23f %1.23f %1.23f"

#fix	1 nve_group nve/sphere

reset_timestep 0
run	2
Setting up run at Mon Apr  3 22:04:41 2023

Memory usage per processor = 9.36265 Mbytes
    Step    Atoms         KinEng            CPU 
       0        3              0              0 
       2        3              0      186.83554 
Loop time of 186.836 on 1 procs for 2 steps with 3 atoms, finish time Mon Apr  3 22:09:22 2023


Pair  time (%) = 5.632e-06 (3.01442e-06)
Neigh time (%) = 0 (0)
Comm  time (%) = 1.072e-06 (5.73767e-07)
Outpt time (%) = 0.00026788 (0.000143377)
Other time (%) = 186.835 (99.9999)

Nlocal:    3 ave 3 max 3 min
Histogram: 1 0 0 0 0 0 0 0 0 0
Nghost:    0 ave 0 max 0 min
Histogram: 1 0 0 0 0 0 0 0 0 0
Neighs:    2 ave 2 max 2 min
Histogram: 1 0 0 0 0 0 0 0 0 0
FullNghs: 4 ave 4 max 4 min
Histogram: 1 0 0 0 0 0 0 0 0 0

Total # of neighbors = 4
Ave neighs/atom = 1.33333
Neighbor list builds = 0
Dangerous builds = 0
undump	dmp
delete_atoms group  atom_j
Deleted 1 atoms, new total = 2
next c
#undump dmp_local
#uncompute deltas
jump in.mag loop
variable c loop 20 40
#separation between the atoms
variable sep equal ${c}*${atom_rad}/10
variable sep equal 25*${atom_rad}/10
variable sep equal 25*1/10
print "separation distance = ${sep}"
separation distance = 2.5

create_atoms	1 single 0 0 -${sep}
create_atoms	1 single 0 0 -2.5
Created 1 atoms
group           atom_j id 3
1 atoms in group atom_j

set     atom 3 diameter ${atom_dia}
set     atom 3 diameter 2
  1 settings made for diameter


dump  dmp atom_j custom 1 post_par3_SHA_MDM_20_betachange/dump_$c_*.liggghts id type fx fy fz x y z radius mux muy muz
dump  dmp atom_j custom 1 post_par3_SHA_MDM_20_betachange/dump_25_*.liggghts id type fx fy fz x y z radius mux muy muz
#dump_modify dmp format "%d %d %1.23f %1.23f %1.23f %1.23f %1.23f %1.23f %1.23f %1.23f %1.23f %1.23f"

#fix	1 nve_group nve/sphere

reset_timestep 0
run	2
Setting up run at Mon Apr  3 22:09:22 2023

Memory usage per processor = 9.36265 Mbytes
    Step    Atoms         KinEng            CPU 
       0        3              0              0 
       2        3              0      185.42843 
Loop time of 185.428 on 1 procs for 2 steps with 3 atoms, finish time Mon Apr  3 22:14:01 2023


Pair  time (%) = 6.801e-06 (3.66772e-06)
Neigh time (%) = 0 (0)
Comm  time (%) = 9.35e-07 (5.04238e-07)
Outpt time (%) = 0.000344597 (0.000185838)
Other time (%) = 185.428 (99.9998)

Nlocal:    3 ave 3 max 3 min
Histogram: 1 0 0 0 0 0 0 0 0 0
Nghost:    0 ave 0 max 0 min
Histogram: 1 0 0 0 0 0 0 0 0 0
Neighs:    2 ave 2 max 2 min
Histogram: 1 0 0 0 0 0 0 0 0 0
FullNghs: 4 ave 4 max 4 min
Histogram: 1 0 0 0 0 0 0 0 0 0

Total # of neighbors = 4
Ave neighs/atom = 1.33333
Neighbor list builds = 0
Dangerous builds = 0
undump	dmp
delete_atoms group  atom_j
Deleted 1 atoms, new total = 2
next c
#undump dmp_local
#uncompute deltas
jump in.mag loop
variable c loop 20 40
#separation between the atoms
variable sep equal ${c}*${atom_rad}/10
variable sep equal 26*${atom_rad}/10
variable sep equal 26*1/10
print "separation distance = ${sep}"
separation distance = 2.6

create_atoms	1 single 0 0 -${sep}
create_atoms	1 single 0 0 -2.6
Created 1 atoms
group           atom_j id 3
1 atoms in group atom_j

set     atom 3 diameter ${atom_dia}
set     atom 3 diameter 2
  1 settings made for diameter


dump  dmp atom_j custom 1 post_par3_SHA_MDM_20_betachange/dump_$c_*.liggghts id type fx fy fz x y z radius mux muy muz
dump  dmp atom_j custom 1 post_par3_SHA_MDM_20_betachange/dump_26_*.liggghts id type fx fy fz x y z radius mux muy muz
#dump_modify dmp format "%d %d %1.23f %1.23f %1.23f %1.23f %1.23f %1.23f %1.23f %1.23f %1.23f %1.23f"

#fix	1 nve_group nve/sphere

reset_timestep 0
run	2
Setting up run at Mon Apr  3 22:14:01 2023

Memory usage per processor = 9.36265 Mbytes
    Step    Atoms         KinEng            CPU 
       0        3              0              0 
       2        3              0      184.03313 
Loop time of 184.033 on 1 procs for 2 steps with 3 atoms, finish time Mon Apr  3 22:18:36 2023


Pair  time (%) = 7.288e-06 (3.96016e-06)
Neigh time (%) = 0 (0)
Comm  time (%) = 7.58e-07 (4.11882e-07)
Outpt time (%) = 0.000259534 (0.000141026)
Other time (%) = 184.033 (99.9999)

Nlocal:    3 ave 3 max 3 min
Histogram: 1 0 0 0 0 0 0 0 0 0
Nghost:    0 ave 0 max 0 min
Histogram: 1 0 0 0 0 0 0 0 0 0
Neighs:    2 ave 2 max 2 min
Histogram: 1 0 0 0 0 0 0 0 0 0
FullNghs: 4 ave 4 max 4 min
Histogram: 1 0 0 0 0 0 0 0 0 0

Total # of neighbors = 4
Ave neighs/atom = 1.33333
Neighbor list builds = 0
Dangerous builds = 0
undump	dmp
delete_atoms group  atom_j
Deleted 1 atoms, new total = 2
next c
#undump dmp_local
#uncompute deltas
jump in.mag loop
variable c loop 20 40
#separation between the atoms
variable sep equal ${c}*${atom_rad}/10
variable sep equal 27*${atom_rad}/10
variable sep equal 27*1/10
print "separation distance = ${sep}"
separation distance = 2.7

create_atoms	1 single 0 0 -${sep}
create_atoms	1 single 0 0 -2.7
Created 1 atoms
group           atom_j id 3
1 atoms in group atom_j

set     atom 3 diameter ${atom_dia}
set     atom 3 diameter 2
  1 settings made for diameter


dump  dmp atom_j custom 1 post_par3_SHA_MDM_20_betachange/dump_$c_*.liggghts id type fx fy fz x y z radius mux muy muz
dump  dmp atom_j custom 1 post_par3_SHA_MDM_20_betachange/dump_27_*.liggghts id type fx fy fz x y z radius mux muy muz
#dump_modify dmp format "%d %d %1.23f %1.23f %1.23f %1.23f %1.23f %1.23f %1.23f %1.23f %1.23f %1.23f"

#fix	1 nve_group nve/sphere

reset_timestep 0
run	2
Setting up run at Mon Apr  3 22:18:36 2023

Memory usage per processor = 9.36265 Mbytes
    Step    Atoms         KinEng            CPU 
       0        3              0              0 
       2        3              0      184.70677 
Loop time of 184.707 on 1 procs for 2 steps with 3 atoms, finish time Mon Apr  3 22:23:13 2023


Pair  time (%) = 5.762e-06 (3.11954e-06)
Neigh time (%) = 0 (0)
Comm  time (%) = 8.15e-07 (4.4124e-07)
Outpt time (%) = 0.000368723 (0.000199626)
Other time (%) = 184.706 (99.9998)

Nlocal:    3 ave 3 max 3 min
Histogram: 1 0 0 0 0 0 0 0 0 0
Nghost:    0 ave 0 max 0 min
Histogram: 1 0 0 0 0 0 0 0 0 0
Neighs:    2 ave 2 max 2 min
Histogram: 1 0 0 0 0 0 0 0 0 0
FullNghs: 4 ave 4 max 4 min
Histogram: 1 0 0 0 0 0 0 0 0 0

Total # of neighbors = 4
Ave neighs/atom = 1.33333
Neighbor list builds = 0
Dangerous builds = 0
undump	dmp
delete_atoms group  atom_j
Deleted 1 atoms, new total = 2
next c
#undump dmp_local
#uncompute deltas
jump in.mag loop
variable c loop 20 40
#separation between the atoms
variable sep equal ${c}*${atom_rad}/10
variable sep equal 28*${atom_rad}/10
variable sep equal 28*1/10
print "separation distance = ${sep}"
separation distance = 2.8

create_atoms	1 single 0 0 -${sep}
create_atoms	1 single 0 0 -2.8
Created 1 atoms
group           atom_j id 3
1 atoms in group atom_j

set     atom 3 diameter ${atom_dia}
set     atom 3 diameter 2
  1 settings made for diameter


dump  dmp atom_j custom 1 post_par3_SHA_MDM_20_betachange/dump_$c_*.liggghts id type fx fy fz x y z radius mux muy muz
dump  dmp atom_j custom 1 post_par3_SHA_MDM_20_betachange/dump_28_*.liggghts id type fx fy fz x y z radius mux muy muz
#dump_modify dmp format "%d %d %1.23f %1.23f %1.23f %1.23f %1.23f %1.23f %1.23f %1.23f %1.23f %1.23f"

#fix	1 nve_group nve/sphere

reset_timestep 0
run	2
Setting up run at Mon Apr  3 22:23:13 2023

Memory usage per processor = 9.36265 Mbytes
    Step    Atoms         KinEng            CPU 
       0        3              0              0 
       2        3              0       185.7535 
Loop time of 185.754 on 1 procs for 2 steps with 3 atoms, finish time Mon Apr  3 22:27:51 2023


Pair  time (%) = 6.894e-06 (3.71137e-06)
Neigh time (%) = 0 (0)
Comm  time (%) = 9.57e-07 (5.15199e-07)
Outpt time (%) = 0.000284459 (0.000153138)
Other time (%) = 185.753 (99.9998)

Nlocal:    3 ave 3 max 3 min
Histogram: 1 0 0 0 0 0 0 0 0 0
Nghost:    0 ave 0 max 0 min
Histogram: 1 0 0 0 0 0 0 0 0 0
Neighs:    2 ave 2 max 2 min
Histogram: 1 0 0 0 0 0 0 0 0 0
FullNghs: 4 ave 4 max 4 min
Histogram: 1 0 0 0 0 0 0 0 0 0

Total # of neighbors = 4
Ave neighs/atom = 1.33333
Neighbor list builds = 0
Dangerous builds = 0
undump	dmp
delete_atoms group  atom_j
Deleted 1 atoms, new total = 2
next c
#undump dmp_local
#uncompute deltas
jump in.mag loop
variable c loop 20 40
#separation between the atoms
variable sep equal ${c}*${atom_rad}/10
variable sep equal 29*${atom_rad}/10
variable sep equal 29*1/10
print "separation distance = ${sep}"
separation distance = 2.9

create_atoms	1 single 0 0 -${sep}
create_atoms	1 single 0 0 -2.9
Created 1 atoms
group           atom_j id 3
1 atoms in group atom_j

set     atom 3 diameter ${atom_dia}
set     atom 3 diameter 2
  1 settings made for diameter


dump  dmp atom_j custom 1 post_par3_SHA_MDM_20_betachange/dump_$c_*.liggghts id type fx fy fz x y z radius mux muy muz
dump  dmp atom_j custom 1 post_par3_SHA_MDM_20_betachange/dump_29_*.liggghts id type fx fy fz x y z radius mux muy muz
#dump_modify dmp format "%d %d %1.23f %1.23f %1.23f %1.23f %1.23f %1.23f %1.23f %1.23f %1.23f %1.23f"

#fix	1 nve_group nve/sphere

reset_timestep 0
run	2
Setting up run at Mon Apr  3 22:27:51 2023

Memory usage per processor = 9.36265 Mbytes
    Step    Atoms         KinEng            CPU 
       0        3              0              0 
       2        3              0      187.56617 
Loop time of 187.566 on 1 procs for 2 steps with 3 atoms, finish time Mon Apr  3 22:32:33 2023


Pair  time (%) = 6.637e-06 (3.53848e-06)
Neigh time (%) = 0 (0)
Comm  time (%) = 8.25e-07 (4.39845e-07)
Outpt time (%) = 0.000239105 (0.000127478)
Other time (%) = 187.566 (99.9999)

Nlocal:    3 ave 3 max 3 min
Histogram: 1 0 0 0 0 0 0 0 0 0
Nghost:    0 ave 0 max 0 min
Histogram: 1 0 0 0 0 0 0 0 0 0
Neighs:    2 ave 2 max 2 min
Histogram: 1 0 0 0 0 0 0 0 0 0
FullNghs: 4 ave 4 max 4 min
Histogram: 1 0 0 0 0 0 0 0 0 0

Total # of neighbors = 4
Ave neighs/atom = 1.33333
Neighbor list builds = 0
Dangerous builds = 0
undump	dmp
delete_atoms group  atom_j
Deleted 1 atoms, new total = 2
next c
#undump dmp_local
#uncompute deltas
jump in.mag loop
variable c loop 20 40
#separation between the atoms
variable sep equal ${c}*${atom_rad}/10
variable sep equal 30*${atom_rad}/10
variable sep equal 30*1/10
print "separation distance = ${sep}"
separation distance = 3

create_atoms	1 single 0 0 -${sep}
create_atoms	1 single 0 0 -3
Created 1 atoms
group           atom_j id 3
1 atoms in group atom_j

set     atom 3 diameter ${atom_dia}
set     atom 3 diameter 2
  1 settings made for diameter


dump  dmp atom_j custom 1 post_par3_SHA_MDM_20_betachange/dump_$c_*.liggghts id type fx fy fz x y z radius mux muy muz
dump  dmp atom_j custom 1 post_par3_SHA_MDM_20_betachange/dump_30_*.liggghts id type fx fy fz x y z radius mux muy muz
#dump_modify dmp format "%d %d %1.23f %1.23f %1.23f %1.23f %1.23f %1.23f %1.23f %1.23f %1.23f %1.23f"

#fix	1 nve_group nve/sphere

reset_timestep 0
run	2
Setting up run at Mon Apr  3 22:32:33 2023

Memory usage per processor = 9.36265 Mbytes
    Step    Atoms         KinEng            CPU 
       0        3              0              0 
       2        3              0      188.22887 
Loop time of 188.229 on 1 procs for 2 steps with 3 atoms, finish time Mon Apr  3 22:37:16 2023


Pair  time (%) = 7.465e-06 (3.96592e-06)
Neigh time (%) = 0 (0)
Comm  time (%) = 8.88e-07 (4.71766e-07)
Outpt time (%) = 0.000350216 (0.000186059)
Other time (%) = 188.229 (99.9998)

Nlocal:    3 ave 3 max 3 min
Histogram: 1 0 0 0 0 0 0 0 0 0
Nghost:    0 ave 0 max 0 min
Histogram: 1 0 0 0 0 0 0 0 0 0
Neighs:    2 ave 2 max 2 min
Histogram: 1 0 0 0 0 0 0 0 0 0
FullNghs: 4 ave 4 max 4 min
Histogram: 1 0 0 0 0 0 0 0 0 0

Total # of neighbors = 4
Ave neighs/atom = 1.33333
Neighbor list builds = 0
Dangerous builds = 0
undump	dmp
delete_atoms group  atom_j
Deleted 1 atoms, new total = 2
next c
#undump dmp_local
#uncompute deltas
jump in.mag loop
variable c loop 20 40
#separation between the atoms
variable sep equal ${c}*${atom_rad}/10
variable sep equal 31*${atom_rad}/10
variable sep equal 31*1/10
print "separation distance = ${sep}"
separation distance = 3.1

create_atoms	1 single 0 0 -${sep}
create_atoms	1 single 0 0 -3.1
Created 1 atoms
group           atom_j id 3
1 atoms in group atom_j

set     atom 3 diameter ${atom_dia}
set     atom 3 diameter 2
  1 settings made for diameter


dump  dmp atom_j custom 1 post_par3_SHA_MDM_20_betachange/dump_$c_*.liggghts id type fx fy fz x y z radius mux muy muz
dump  dmp atom_j custom 1 post_par3_SHA_MDM_20_betachange/dump_31_*.liggghts id type fx fy fz x y z radius mux muy muz
#dump_modify dmp format "%d %d %1.23f %1.23f %1.23f %1.23f %1.23f %1.23f %1.23f %1.23f %1.23f %1.23f"

#fix	1 nve_group nve/sphere

reset_timestep 0
run	2
Setting up run at Mon Apr  3 22:37:16 2023

Memory usage per processor = 9.36265 Mbytes
    Step    Atoms         KinEng            CPU 
       0        3              0              0 
       2        3              0       187.0464 
Loop time of 187.046 on 1 procs for 2 steps with 3 atoms, finish time Mon Apr  3 22:41:56 2023


Pair  time (%) = 6.297e-06 (3.36654e-06)
Neigh time (%) = 0 (0)
Comm  time (%) = 7.71e-07 (4.12197e-07)
Outpt time (%) = 0.000269542 (0.000144104)
Other time (%) = 187.046 (99.9999)

Nlocal:    3 ave 3 max 3 min
Histogram: 1 0 0 0 0 0 0 0 0 0
Nghost:    0 ave 0 max 0 min
Histogram: 1 0 0 0 0 0 0 0 0 0
Neighs:    2 ave 2 max 2 min
Histogram: 1 0 0 0 0 0 0 0 0 0
FullNghs: 4 ave 4 max 4 min
Histogram: 1 0 0 0 0 0 0 0 0 0

Total # of neighbors = 4
Ave neighs/atom = 1.33333
Neighbor list builds = 0
Dangerous builds = 0
undump	dmp
delete_atoms group  atom_j
Deleted 1 atoms, new total = 2
next c
#undump dmp_local
#uncompute deltas
jump in.mag loop
variable c loop 20 40
#separation between the atoms
variable sep equal ${c}*${atom_rad}/10
variable sep equal 32*${atom_rad}/10
variable sep equal 32*1/10
print "separation distance = ${sep}"
separation distance = 3.2

create_atoms	1 single 0 0 -${sep}
create_atoms	1 single 0 0 -3.2
Created 1 atoms
group           atom_j id 3
1 atoms in group atom_j

set     atom 3 diameter ${atom_dia}
set     atom 3 diameter 2
  1 settings made for diameter


dump  dmp atom_j custom 1 post_par3_SHA_MDM_20_betachange/dump_$c_*.liggghts id type fx fy fz x y z radius mux muy muz
dump  dmp atom_j custom 1 post_par3_SHA_MDM_20_betachange/dump_32_*.liggghts id type fx fy fz x y z radius mux muy muz
#dump_modify dmp format "%d %d %1.23f %1.23f %1.23f %1.23f %1.23f %1.23f %1.23f %1.23f %1.23f %1.23f"

#fix	1 nve_group nve/sphere

reset_timestep 0
run	2
Setting up run at Mon Apr  3 22:41:56 2023

Memory usage per processor = 9.36265 Mbytes
    Step    Atoms         KinEng            CPU 
       0        3              0              0 
       2        3              0       191.5069 
Loop time of 191.507 on 1 procs for 2 steps with 3 atoms, finish time Mon Apr  3 22:46:41 2023


Pair  time (%) = 6.865e-06 (3.58473e-06)
Neigh time (%) = 0 (0)
Comm  time (%) = 8.94e-07 (4.66824e-07)
Outpt time (%) = 0.000323126 (0.000168728)
Other time (%) = 191.507 (99.9998)

Nlocal:    3 ave 3 max 3 min
Histogram: 1 0 0 0 0 0 0 0 0 0
Nghost:    0 ave 0 max 0 min
Histogram: 1 0 0 0 0 0 0 0 0 0
Neighs:    2 ave 2 max 2 min
Histogram: 1 0 0 0 0 0 0 0 0 0
FullNghs: 4 ave 4 max 4 min
Histogram: 1 0 0 0 0 0 0 0 0 0

Total # of neighbors = 4
Ave neighs/atom = 1.33333
Neighbor list builds = 0
Dangerous builds = 0
undump	dmp
delete_atoms group  atom_j
Deleted 1 atoms, new total = 2
next c
#undump dmp_local
#uncompute deltas
jump in.mag loop
variable c loop 20 40
#separation between the atoms
variable sep equal ${c}*${atom_rad}/10
variable sep equal 33*${atom_rad}/10
variable sep equal 33*1/10
print "separation distance = ${sep}"
separation distance = 3.3

create_atoms	1 single 0 0 -${sep}
create_atoms	1 single 0 0 -3.3
Created 1 atoms
group           atom_j id 3
1 atoms in group atom_j

set     atom 3 diameter ${atom_dia}
set     atom 3 diameter 2
  1 settings made for diameter


dump  dmp atom_j custom 1 post_par3_SHA_MDM_20_betachange/dump_$c_*.liggghts id type fx fy fz x y z radius mux muy muz
dump  dmp atom_j custom 1 post_par3_SHA_MDM_20_betachange/dump_33_*.liggghts id type fx fy fz x y z radius mux muy muz
#dump_modify dmp format "%d %d %1.23f %1.23f %1.23f %1.23f %1.23f %1.23f %1.23f %1.23f %1.23f %1.23f"

#fix	1 nve_group nve/sphere

reset_timestep 0
run	2
Setting up run at Mon Apr  3 22:46:41 2023

Memory usage per processor = 9.36265 Mbytes
    Step    Atoms         KinEng            CPU 
       0        3              0              0 
       2        3              0      182.46013 
Loop time of 182.46 on 1 procs for 2 steps with 3 atoms, finish time Mon Apr  3 22:51:19 2023


Pair  time (%) = 9.153e-06 (5.01644e-06)
Neigh time (%) = 0 (0)
Comm  time (%) = 1.056e-06 (5.78756e-07)
Outpt time (%) = 0.000284708 (0.000156038)
Other time (%) = 182.46 (99.9998)

Nlocal:    3 ave 3 max 3 min
Histogram: 1 0 0 0 0 0 0 0 0 0
Nghost:    0 ave 0 max 0 min
Histogram: 1 0 0 0 0 0 0 0 0 0
Neighs:    2 ave 2 max 2 min
Histogram: 1 0 0 0 0 0 0 0 0 0
FullNghs: 4 ave 4 max 4 min
Histogram: 1 0 0 0 0 0 0 0 0 0

Total # of neighbors = 4
Ave neighs/atom = 1.33333
Neighbor list builds = 0
Dangerous builds = 0
undump	dmp
delete_atoms group  atom_j
Deleted 1 atoms, new total = 2
next c
#undump dmp_local
#uncompute deltas
jump in.mag loop
variable c loop 20 40
#separation between the atoms
variable sep equal ${c}*${atom_rad}/10
variable sep equal 34*${atom_rad}/10
variable sep equal 34*1/10
print "separation distance = ${sep}"
separation distance = 3.4

create_atoms	1 single 0 0 -${sep}
create_atoms	1 single 0 0 -3.4
Created 1 atoms
group           atom_j id 3
1 atoms in group atom_j

set     atom 3 diameter ${atom_dia}
set     atom 3 diameter 2
  1 settings made for diameter


dump  dmp atom_j custom 1 post_par3_SHA_MDM_20_betachange/dump_$c_*.liggghts id type fx fy fz x y z radius mux muy muz
dump  dmp atom_j custom 1 post_par3_SHA_MDM_20_betachange/dump_34_*.liggghts id type fx fy fz x y z radius mux muy muz
#dump_modify dmp format "%d %d %1.23f %1.23f %1.23f %1.23f %1.23f %1.23f %1.23f %1.23f %1.23f %1.23f"

#fix	1 nve_group nve/sphere

reset_timestep 0
run	2
Setting up run at Mon Apr  3 22:51:19 2023

Memory usage per processor = 9.36265 Mbytes
    Step    Atoms         KinEng            CPU 
       0        3              0              0 
       2        3              0      189.22175 
Loop time of 189.222 on 1 procs for 2 steps with 3 atoms, finish time Mon Apr  3 22:56:02 2023


Pair  time (%) = 1.4643e-05 (7.73854e-06)
Neigh time (%) = 0 (0)
Comm  time (%) = 1.707e-06 (9.02116e-07)
Outpt time (%) = 0.000380747 (0.000201217)
Other time (%) = 189.221 (99.9998)

Nlocal:    3 ave 3 max 3 min
Histogram: 1 0 0 0 0 0 0 0 0 0
Nghost:    0 ave 0 max 0 min
Histogram: 1 0 0 0 0 0 0 0 0 0
Neighs:    2 ave 2 max 2 min
Histogram: 1 0 0 0 0 0 0 0 0 0
FullNghs: 4 ave 4 max 4 min
Histogram: 1 0 0 0 0 0 0 0 0 0

Total # of neighbors = 4
Ave neighs/atom = 1.33333
Neighbor list builds = 0
Dangerous builds = 0
undump	dmp
delete_atoms group  atom_j
Deleted 1 atoms, new total = 2
next c
#undump dmp_local
#uncompute deltas
jump in.mag loop
variable c loop 20 40
#separation between the atoms
variable sep equal ${c}*${atom_rad}/10
variable sep equal 35*${atom_rad}/10
variable sep equal 35*1/10
print "separation distance = ${sep}"
separation distance = 3.5

create_atoms	1 single 0 0 -${sep}
create_atoms	1 single 0 0 -3.5
Created 1 atoms
group           atom_j id 3
1 atoms in group atom_j

set     atom 3 diameter ${atom_dia}
set     atom 3 diameter 2
  1 settings made for diameter


dump  dmp atom_j custom 1 post_par3_SHA_MDM_20_betachange/dump_$c_*.liggghts id type fx fy fz x y z radius mux muy muz
dump  dmp atom_j custom 1 post_par3_SHA_MDM_20_betachange/dump_35_*.liggghts id type fx fy fz x y z radius mux muy muz
#dump_modify dmp format "%d %d %1.23f %1.23f %1.23f %1.23f %1.23f %1.23f %1.23f %1.23f %1.23f %1.23f"

#fix	1 nve_group nve/sphere

reset_timestep 0
run	2
Setting up run at Mon Apr  3 22:56:02 2023

Memory usage per processor = 9.36265 Mbytes
    Step    Atoms         KinEng            CPU 
       0        3              0              0 
       2        3              0      189.43187 
Loop time of 189.432 on 1 procs for 2 steps with 3 atoms, finish time Mon Apr  3 23:00:46 2023


Pair  time (%) = 8.397e-06 (4.43273e-06)
Neigh time (%) = 0 (0)
Comm  time (%) = 1.334e-06 (7.04211e-07)
Outpt time (%) = 0.000291158 (0.000153701)
Other time (%) = 189.432 (99.9998)

Nlocal:    3 ave 3 max 3 min
Histogram: 1 0 0 0 0 0 0 0 0 0
Nghost:    0 ave 0 max 0 min
Histogram: 1 0 0 0 0 0 0 0 0 0
Neighs:    2 ave 2 max 2 min
Histogram: 1 0 0 0 0 0 0 0 0 0
FullNghs: 4 ave 4 max 4 min
Histogram: 1 0 0 0 0 0 0 0 0 0

Total # of neighbors = 4
Ave neighs/atom = 1.33333
Neighbor list builds = 0
Dangerous builds = 0
undump	dmp
delete_atoms group  atom_j
Deleted 1 atoms, new total = 2
next c
#undump dmp_local
#uncompute deltas
jump in.mag loop
variable c loop 20 40
#separation between the atoms
variable sep equal ${c}*${atom_rad}/10
variable sep equal 36*${atom_rad}/10
variable sep equal 36*1/10
print "separation distance = ${sep}"
separation distance = 3.6

create_atoms	1 single 0 0 -${sep}
create_atoms	1 single 0 0 -3.6
Created 1 atoms
group           atom_j id 3
1 atoms in group atom_j

set     atom 3 diameter ${atom_dia}
set     atom 3 diameter 2
  1 settings made for diameter


dump  dmp atom_j custom 1 post_par3_SHA_MDM_20_betachange/dump_$c_*.liggghts id type fx fy fz x y z radius mux muy muz
dump  dmp atom_j custom 1 post_par3_SHA_MDM_20_betachange/dump_36_*.liggghts id type fx fy fz x y z radius mux muy muz
#dump_modify dmp format "%d %d %1.23f %1.23f %1.23f %1.23f %1.23f %1.23f %1.23f %1.23f %1.23f %1.23f"

#fix	1 nve_group nve/sphere

reset_timestep 0
run	2
Setting up run at Mon Apr  3 23:00:46 2023

Memory usage per processor = 9.36265 Mbytes
    Step    Atoms         KinEng            CPU 
       0        3              0              0 
       2        3              0      190.25121 
Loop time of 190.251 on 1 procs for 2 steps with 3 atoms, finish time Mon Apr  3 23:05:31 2023


Pair  time (%) = 7.571e-06 (3.97947e-06)
Neigh time (%) = 0 (0)
Comm  time (%) = 9.11001e-07 (4.78841e-07)
Outpt time (%) = 0.00063403 (0.000333259)
Other time (%) = 190.251 (99.9997)

Nlocal:    3 ave 3 max 3 min
Histogram: 1 0 0 0 0 0 0 0 0 0
Nghost:    0 ave 0 max 0 min
Histogram: 1 0 0 0 0 0 0 0 0 0
Neighs:    2 ave 2 max 2 min
Histogram: 1 0 0 0 0 0 0 0 0 0
FullNghs: 4 ave 4 max 4 min
Histogram: 1 0 0 0 0 0 0 0 0 0

Total # of neighbors = 4
Ave neighs/atom = 1.33333
Neighbor list builds = 0
Dangerous builds = 0
undump	dmp
delete_atoms group  atom_j
Deleted 1 atoms, new total = 2
next c
#undump dmp_local
#uncompute deltas
jump in.mag loop
variable c loop 20 40
#separation between the atoms
variable sep equal ${c}*${atom_rad}/10
variable sep equal 37*${atom_rad}/10
variable sep equal 37*1/10
print "separation distance = ${sep}"
separation distance = 3.7

create_atoms	1 single 0 0 -${sep}
create_atoms	1 single 0 0 -3.7
Created 1 atoms
group           atom_j id 3
1 atoms in group atom_j

set     atom 3 diameter ${atom_dia}
set     atom 3 diameter 2
  1 settings made for diameter


dump  dmp atom_j custom 1 post_par3_SHA_MDM_20_betachange/dump_$c_*.liggghts id type fx fy fz x y z radius mux muy muz
dump  dmp atom_j custom 1 post_par3_SHA_MDM_20_betachange/dump_37_*.liggghts id type fx fy fz x y z radius mux muy muz
#dump_modify dmp format "%d %d %1.23f %1.23f %1.23f %1.23f %1.23f %1.23f %1.23f %1.23f %1.23f %1.23f"

#fix	1 nve_group nve/sphere

reset_timestep 0
run	2
Setting up run at Mon Apr  3 23:05:31 2023

Memory usage per processor = 9.36265 Mbytes
    Step    Atoms         KinEng            CPU 
       0        3              0              0 
       2        3              0      180.35014 
Loop time of 180.35 on 1 procs for 2 steps with 3 atoms, finish time Mon Apr  3 23:10:03 2023


Pair  time (%) = 2.5249e-05 (1.4e-05)
Neigh time (%) = 0 (0)
Comm  time (%) = 7.72e-07 (4.28056e-07)
Outpt time (%) = 0.000281568 (0.000156123)
Other time (%) = 180.35 (99.9998)

Nlocal:    3 ave 3 max 3 min
Histogram: 1 0 0 0 0 0 0 0 0 0
Nghost:    0 ave 0 max 0 min
Histogram: 1 0 0 0 0 0 0 0 0 0
Neighs:    2 ave 2 max 2 min
Histogram: 1 0 0 0 0 0 0 0 0 0
FullNghs: 4 ave 4 max 4 min
Histogram: 1 0 0 0 0 0 0 0 0 0

Total # of neighbors = 4
Ave neighs/atom = 1.33333
Neighbor list builds = 0
Dangerous builds = 0
undump	dmp
delete_atoms group  atom_j
Deleted 1 atoms, new total = 2
next c
#undump dmp_local
#uncompute deltas
jump in.mag loop
variable c loop 20 40
#separation between the atoms
variable sep equal ${c}*${atom_rad}/10
variable sep equal 38*${atom_rad}/10
variable sep equal 38*1/10
print "separation distance = ${sep}"
separation distance = 3.8

create_atoms	1 single 0 0 -${sep}
create_atoms	1 single 0 0 -3.8
Created 1 atoms
group           atom_j id 3
1 atoms in group atom_j

set     atom 3 diameter ${atom_dia}
set     atom 3 diameter 2
  1 settings made for diameter


dump  dmp atom_j custom 1 post_par3_SHA_MDM_20_betachange/dump_$c_*.liggghts id type fx fy fz x y z radius mux muy muz
dump  dmp atom_j custom 1 post_par3_SHA_MDM_20_betachange/dump_38_*.liggghts id type fx fy fz x y z radius mux muy muz
#dump_modify dmp format "%d %d %1.23f %1.23f %1.23f %1.23f %1.23f %1.23f %1.23f %1.23f %1.23f %1.23f"

#fix	1 nve_group nve/sphere

reset_timestep 0
run	2
Setting up run at Mon Apr  3 23:10:03 2023

Memory usage per processor = 9.36265 Mbytes
    Step    Atoms         KinEng            CPU 
       0        3              0              0 
       2        3              0      172.17561 
Loop time of 172.176 on 1 procs for 2 steps with 3 atoms, finish time Mon Apr  3 23:14:22 2023


Pair  time (%) = 6.897e-06 (4.00579e-06)
Neigh time (%) = 0 (0)
Comm  time (%) = 8.43999e-07 (4.90197e-07)
Outpt time (%) = 0.000269921 (0.000156771)
Other time (%) = 172.175 (99.9998)

Nlocal:    3 ave 3 max 3 min
Histogram: 1 0 0 0 0 0 0 0 0 0
Nghost:    0 ave 0 max 0 min
Histogram: 1 0 0 0 0 0 0 0 0 0
Neighs:    2 ave 2 max 2 min
Histogram: 1 0 0 0 0 0 0 0 0 0
FullNghs: 4 ave 4 max 4 min
Histogram: 1 0 0 0 0 0 0 0 0 0

Total # of neighbors = 4
Ave neighs/atom = 1.33333
Neighbor list builds = 0
Dangerous builds = 0
undump	dmp
delete_atoms group  atom_j
Deleted 1 atoms, new total = 2
next c
#undump dmp_local
#uncompute deltas
jump in.mag loop
variable c loop 20 40
#separation between the atoms
variable sep equal ${c}*${atom_rad}/10
variable sep equal 39*${atom_rad}/10
variable sep equal 39*1/10
print "separation distance = ${sep}"
separation distance = 3.9

create_atoms	1 single 0 0 -${sep}
create_atoms	1 single 0 0 -3.9
Created 1 atoms
group           atom_j id 3
1 atoms in group atom_j

set     atom 3 diameter ${atom_dia}
set     atom 3 diameter 2
  1 settings made for diameter


dump  dmp atom_j custom 1 post_par3_SHA_MDM_20_betachange/dump_$c_*.liggghts id type fx fy fz x y z radius mux muy muz
dump  dmp atom_j custom 1 post_par3_SHA_MDM_20_betachange/dump_39_*.liggghts id type fx fy fz x y z radius mux muy muz
#dump_modify dmp format "%d %d %1.23f %1.23f %1.23f %1.23f %1.23f %1.23f %1.23f %1.23f %1.23f %1.23f"

#fix	1 nve_group nve/sphere

reset_timestep 0
run	2
Setting up run at Mon Apr  3 23:14:22 2023

Memory usage per processor = 9.36265 Mbytes
    Step    Atoms         KinEng            CPU 
       0        3              0              0 
       2        3              0      161.10487 
Loop time of 161.105 on 1 procs for 2 steps with 3 atoms, finish time Mon Apr  3 23:18:31 2023


Pair  time (%) = 6.243e-06 (3.87511e-06)
Neigh time (%) = 0 (0)
Comm  time (%) = 1.103e-06 (6.84647e-07)
Outpt time (%) = 0.000250917 (0.000155748)
Other time (%) = 161.105 (99.9998)

Nlocal:    3 ave 3 max 3 min
Histogram: 1 0 0 0 0 0 0 0 0 0
Nghost:    0 ave 0 max 0 min
Histogram: 1 0 0 0 0 0 0 0 0 0
Neighs:    2 ave 2 max 2 min
Histogram: 1 0 0 0 0 0 0 0 0 0
FullNghs: 4 ave 4 max 4 min
Histogram: 1 0 0 0 0 0 0 0 0 0

Total # of neighbors = 4
Ave neighs/atom = 1.33333
Neighbor list builds = 0
Dangerous builds = 0
undump	dmp
delete_atoms group  atom_j
Deleted 1 atoms, new total = 2
next c
#undump dmp_local
#uncompute deltas
jump in.mag loop
variable c loop 20 40
#separation between the atoms
variable sep equal ${c}*${atom_rad}/10
variable sep equal 40*${atom_rad}/10
variable sep equal 40*1/10
print "separation distance = ${sep}"
separation distance = 4

create_atoms	1 single 0 0 -${sep}
create_atoms	1 single 0 0 -4
Created 1 atoms
group           atom_j id 3
1 atoms in group atom_j

set     atom 3 diameter ${atom_dia}
set     atom 3 diameter 2
  1 settings made for diameter


dump  dmp atom_j custom 1 post_par3_SHA_MDM_20_betachange/dump_$c_*.liggghts id type fx fy fz x y z radius mux muy muz
dump  dmp atom_j custom 1 post_par3_SHA_MDM_20_betachange/dump_40_*.liggghts id type fx fy fz x y z radius mux muy muz
#dump_modify dmp format "%d %d %1.23f %1.23f %1.23f %1.23f %1.23f %1.23f %1.23f %1.23f %1.23f %1.23f"

#fix	1 nve_group nve/sphere

reset_timestep 0
run	2
Setting up run at Mon Apr  3 23:18:31 2023

Memory usage per processor = 9.36265 Mbytes
    Step    Atoms         KinEng            CPU 
       0        3              0              0 
       2        3              0      163.47586 
Loop time of 163.476 on 1 procs for 2 steps with 3 atoms, finish time Mon Apr  3 23:22:35 2023


Pair  time (%) = 5.434e-06 (3.32404e-06)
Neigh time (%) = 0 (0)
Comm  time (%) = 7.77e-07 (4.75299e-07)
Outpt time (%) = 0.000249215 (0.000152448)
Other time (%) = 163.476 (99.9998)

Nlocal:    3 ave 3 max 3 min
Histogram: 1 0 0 0 0 0 0 0 0 0
Nghost:    0 ave 0 max 0 min
Histogram: 1 0 0 0 0 0 0 0 0 0
Neighs:    2 ave 2 max 2 min
Histogram: 1 0 0 0 0 0 0 0 0 0
FullNghs: 4 ave 4 max 4 min
Histogram: 1 0 0 0 0 0 0 0 0 0

Total # of neighbors = 4
Ave neighs/atom = 1.33333
Neighbor list builds = 0
Dangerous builds = 0
undump	dmp
delete_atoms group  atom_j
Deleted 1 atoms, new total = 2
next c
#undump dmp_local
#uncompute deltas
jump in.mag loop
