LIGGGHTS (Version LIGGGHTS-PUBLIC 3.8.0, compiled 2023-03-04-23:45:36 by anmol, git commit unknown)
atom_style	hybrid granular dipole
boundary	f f f
newton		off
atom_modify	sort 10000 0

communicate	single vel yes
units		si
processors	1 1 1

variable reg_dim equal 10 #meters

region		reg block -${reg_dim} ${reg_dim} -${reg_dim} ${reg_dim} -${reg_dim} ${reg_dim} units box
region		reg block -10 ${reg_dim} -${reg_dim} ${reg_dim} -${reg_dim} ${reg_dim} units box
region		reg block -10 10 -${reg_dim} ${reg_dim} -${reg_dim} ${reg_dim} units box
region		reg block -10 10 -10 ${reg_dim} -${reg_dim} ${reg_dim} units box
region		reg block -10 10 -10 10 -${reg_dim} ${reg_dim} units box
region		reg block -10 10 -10 10 -10 ${reg_dim} units box
region		reg block -10 10 -10 10 -10 10 units box
create_box	1 reg
Created orthogonal box = (-10 -10 -10) to (10 10 10)
  1 by 1 by 1 MPI processor grid
neighbor	2 bin
neigh_modify	delay 0 every 1

hard_particles	yes


fix 		m1 all property/global youngsModulus peratomtype 6e6
fix 		m2 all property/global poissonsRatio peratomtype 0.278
fix 		m3 all property/global coefficientRestitution peratomtypepair 1 0.06
fix 		m4 all property/global coefficientFriction peratomtypepair 1 0.4
fix 		m6 all property/global cohesionEnergyDensity peratomtypepair 1 0.01

fix         m7 all property/global magneticSusceptibility peratomtype 1


pair_style gran model hertz tangential history #cohesion sjkr
pair_coeff	* *

timestep	1e-10 # seconds

#index of simulations
# variable a loop 10
#radius of atoms
variable atom_rad equal 1.0 #meters
#diameter of atoms
variable atom_dia equal 2*${atom_rad}
variable atom_dia equal 2*1


create_atoms	1 single 0 0 0
Created 1 atoms
set		atom 1 diameter ${atom_dia}
set		atom 1 diameter 2
  1 settings made for diameter


#                       x   y   z
fix	mag all magnetic    0   1   0

# Define loops

label loop
variable c loop 20 40
#separation between the atoms
variable sep equal ${c}*${atom_rad}/10
variable sep equal 20*${atom_rad}/10
variable sep equal 20*1/10
print "separation distance = ${sep}"
separation distance = 2

create_atoms	1 single 0 0 -${sep}
create_atoms	1 single 0 0 -2
Created 1 atoms
group           atom_j id 2
1 atoms in group atom_j

set     atom 2 diameter ${atom_dia}
set     atom 2 diameter 2
  1 settings made for diameter


dump  dmp all custom 1 post_two_par_SHA_2/dump_$c_*.liggghts id type fx fy fz x y z radius mux muy muz
dump  dmp all custom 1 post_two_par_SHA_2/dump_20_*.liggghts id type fx fy fz x y z radius mux muy muz
#dump_modify dmp format "%d %d %1.23f %1.23f %1.23f %1.23f %1.23f %1.23f %1.23f %1.23f %1.23f %1.23f"

#fix	1 nve_group nve/sphere

reset_timestep 0
run	2
Setting up run at Sat Mar  4 23:48:00 2023

Memory usage per processor = 9.36274 Mbytes
    Step    Atoms         KinEng            CPU 
       0        2              0              0 
       2        2              0      17.232532 
Loop time of 17.2325 on 1 procs for 2 steps with 2 atoms, finish time Sat Mar  4 23:48:25 2023


Pair  time (%) = 5.259e-06 (3.05178e-05)
Neigh time (%) = 0 (0)
Comm  time (%) = 7.59e-07 (4.40446e-06)
Outpt time (%) = 0.000219875 (0.00127593)
Other time (%) = 17.2323 (99.9987)

Nlocal:    2 ave 2 max 2 min
Histogram: 1 0 0 0 0 0 0 0 0 0
Nghost:    0 ave 0 max 0 min
Histogram: 1 0 0 0 0 0 0 0 0 0
Neighs:    1 ave 1 max 1 min
Histogram: 1 0 0 0 0 0 0 0 0 0
FullNghs: 2 ave 2 max 2 min
Histogram: 1 0 0 0 0 0 0 0 0 0

Total # of neighbors = 2
Ave neighs/atom = 1
Neighbor list builds = 0
Dangerous builds = 0
undump	dmp
delete_atoms group  atom_j
Deleted 1 atoms, new total = 1
next c
#undump dmp_local
#uncompute deltas
jump in.mag_2 loop
variable c loop 20 40
#separation between the atoms
variable sep equal ${c}*${atom_rad}/10
variable sep equal 21*${atom_rad}/10
variable sep equal 21*1/10
print "separation distance = ${sep}"
separation distance = 2.1

create_atoms	1 single 0 0 -${sep}
create_atoms	1 single 0 0 -2.1
Created 1 atoms
group           atom_j id 2
1 atoms in group atom_j

set     atom 2 diameter ${atom_dia}
set     atom 2 diameter 2
  1 settings made for diameter


dump  dmp all custom 1 post_two_par_SHA_2/dump_$c_*.liggghts id type fx fy fz x y z radius mux muy muz
dump  dmp all custom 1 post_two_par_SHA_2/dump_21_*.liggghts id type fx fy fz x y z radius mux muy muz
#dump_modify dmp format "%d %d %1.23f %1.23f %1.23f %1.23f %1.23f %1.23f %1.23f %1.23f %1.23f %1.23f"

#fix	1 nve_group nve/sphere

reset_timestep 0
run	2
Setting up run at Sat Mar  4 23:48:25 2023

Memory usage per processor = 9.36274 Mbytes
    Step    Atoms         KinEng            CPU 
       0        2              0              0 
       2        2              0      17.392474 
Loop time of 17.3925 on 1 procs for 2 steps with 2 atoms, finish time Sat Mar  4 23:48:51 2023


Pair  time (%) = 5.333e-06 (3.06627e-05)
Neigh time (%) = 0 (0)
Comm  time (%) = 9.23e-07 (5.30689e-06)
Outpt time (%) = 0.000262182 (0.00150744)
Other time (%) = 17.3922 (99.9985)

Nlocal:    2 ave 2 max 2 min
Histogram: 1 0 0 0 0 0 0 0 0 0
Nghost:    0 ave 0 max 0 min
Histogram: 1 0 0 0 0 0 0 0 0 0
Neighs:    1 ave 1 max 1 min
Histogram: 1 0 0 0 0 0 0 0 0 0
FullNghs: 2 ave 2 max 2 min
Histogram: 1 0 0 0 0 0 0 0 0 0

Total # of neighbors = 2
Ave neighs/atom = 1
Neighbor list builds = 0
Dangerous builds = 0
undump	dmp
delete_atoms group  atom_j
Deleted 1 atoms, new total = 1
next c
#undump dmp_local
#uncompute deltas
jump in.mag_2 loop
variable c loop 20 40
#separation between the atoms
variable sep equal ${c}*${atom_rad}/10
variable sep equal 22*${atom_rad}/10
variable sep equal 22*1/10
print "separation distance = ${sep}"
separation distance = 2.2

create_atoms	1 single 0 0 -${sep}
create_atoms	1 single 0 0 -2.2
Created 1 atoms
group           atom_j id 2
1 atoms in group atom_j

set     atom 2 diameter ${atom_dia}
set     atom 2 diameter 2
  1 settings made for diameter


dump  dmp all custom 1 post_two_par_SHA_2/dump_$c_*.liggghts id type fx fy fz x y z radius mux muy muz
dump  dmp all custom 1 post_two_par_SHA_2/dump_22_*.liggghts id type fx fy fz x y z radius mux muy muz
#dump_modify dmp format "%d %d %1.23f %1.23f %1.23f %1.23f %1.23f %1.23f %1.23f %1.23f %1.23f %1.23f"

#fix	1 nve_group nve/sphere

reset_timestep 0
run	2
Setting up run at Sat Mar  4 23:48:51 2023

Memory usage per processor = 9.36274 Mbytes
    Step    Atoms         KinEng            CPU 
       0        2              0              0 
       2        2              0      15.315927 
Loop time of 15.3159 on 1 procs for 2 steps with 2 atoms, finish time Sat Mar  4 23:49:15 2023


Pair  time (%) = 4.883e-06 (3.18818e-05)
Neigh time (%) = 0 (0)
Comm  time (%) = 7.53e-07 (4.91645e-06)
Outpt time (%) = 0.000244825 (0.0015985)
Other time (%) = 15.3157 (99.9984)

Nlocal:    2 ave 2 max 2 min
Histogram: 1 0 0 0 0 0 0 0 0 0
Nghost:    0 ave 0 max 0 min
Histogram: 1 0 0 0 0 0 0 0 0 0
Neighs:    1 ave 1 max 1 min
Histogram: 1 0 0 0 0 0 0 0 0 0
FullNghs: 2 ave 2 max 2 min
Histogram: 1 0 0 0 0 0 0 0 0 0

Total # of neighbors = 2
Ave neighs/atom = 1
Neighbor list builds = 0
Dangerous builds = 0
undump	dmp
delete_atoms group  atom_j
Deleted 1 atoms, new total = 1
next c
#undump dmp_local
#uncompute deltas
jump in.mag_2 loop
variable c loop 20 40
#separation between the atoms
variable sep equal ${c}*${atom_rad}/10
variable sep equal 23*${atom_rad}/10
variable sep equal 23*1/10
print "separation distance = ${sep}"
separation distance = 2.3

create_atoms	1 single 0 0 -${sep}
create_atoms	1 single 0 0 -2.3
Created 1 atoms
group           atom_j id 2
1 atoms in group atom_j

set     atom 2 diameter ${atom_dia}
set     atom 2 diameter 2
  1 settings made for diameter


dump  dmp all custom 1 post_two_par_SHA_2/dump_$c_*.liggghts id type fx fy fz x y z radius mux muy muz
dump  dmp all custom 1 post_two_par_SHA_2/dump_23_*.liggghts id type fx fy fz x y z radius mux muy muz
#dump_modify dmp format "%d %d %1.23f %1.23f %1.23f %1.23f %1.23f %1.23f %1.23f %1.23f %1.23f %1.23f"

#fix	1 nve_group nve/sphere

reset_timestep 0
run	2
Setting up run at Sat Mar  4 23:49:15 2023

Memory usage per processor = 9.36274 Mbytes
    Step    Atoms         KinEng            CPU 
       0        2              0              0 
       2        2              0      16.875447 
Loop time of 16.8755 on 1 procs for 2 steps with 2 atoms, finish time Sat Mar  4 23:49:41 2023


Pair  time (%) = 4.755e-06 (2.8177e-05)
Neigh time (%) = 0 (0)
Comm  time (%) = 6.61e-07 (3.91693e-06)
Outpt time (%) = 0.000255256 (0.00151259)
Other time (%) = 16.8752 (99.9985)

Nlocal:    2 ave 2 max 2 min
Histogram: 1 0 0 0 0 0 0 0 0 0
Nghost:    0 ave 0 max 0 min
Histogram: 1 0 0 0 0 0 0 0 0 0
Neighs:    1 ave 1 max 1 min
Histogram: 1 0 0 0 0 0 0 0 0 0
FullNghs: 2 ave 2 max 2 min
Histogram: 1 0 0 0 0 0 0 0 0 0

Total # of neighbors = 2
Ave neighs/atom = 1
Neighbor list builds = 0
Dangerous builds = 0
undump	dmp
delete_atoms group  atom_j
Deleted 1 atoms, new total = 1
next c
#undump dmp_local
#uncompute deltas
jump in.mag_2 loop
variable c loop 20 40
#separation between the atoms
variable sep equal ${c}*${atom_rad}/10
variable sep equal 24*${atom_rad}/10
variable sep equal 24*1/10
print "separation distance = ${sep}"
separation distance = 2.4

create_atoms	1 single 0 0 -${sep}
create_atoms	1 single 0 0 -2.4
Created 1 atoms
group           atom_j id 2
1 atoms in group atom_j

set     atom 2 diameter ${atom_dia}
set     atom 2 diameter 2
  1 settings made for diameter


dump  dmp all custom 1 post_two_par_SHA_2/dump_$c_*.liggghts id type fx fy fz x y z radius mux muy muz
dump  dmp all custom 1 post_two_par_SHA_2/dump_24_*.liggghts id type fx fy fz x y z radius mux muy muz
#dump_modify dmp format "%d %d %1.23f %1.23f %1.23f %1.23f %1.23f %1.23f %1.23f %1.23f %1.23f %1.23f"

#fix	1 nve_group nve/sphere

reset_timestep 0
run	2
Setting up run at Sat Mar  4 23:49:41 2023

Memory usage per processor = 9.36274 Mbytes
    Step    Atoms         KinEng            CPU 
       0        2              0              0 
       2        2              0      16.025608 
Loop time of 16.0256 on 1 procs for 2 steps with 2 atoms, finish time Sat Mar  4 23:50:05 2023


Pair  time (%) = 2.6883e-05 (0.00016775)
Neigh time (%) = 0 (0)
Comm  time (%) = 7.25e-07 (4.52401e-06)
Outpt time (%) = 0.00023699 (0.00147882)
Other time (%) = 16.0254 (99.9983)

Nlocal:    2 ave 2 max 2 min
Histogram: 1 0 0 0 0 0 0 0 0 0
Nghost:    0 ave 0 max 0 min
Histogram: 1 0 0 0 0 0 0 0 0 0
Neighs:    1 ave 1 max 1 min
Histogram: 1 0 0 0 0 0 0 0 0 0
FullNghs: 2 ave 2 max 2 min
Histogram: 1 0 0 0 0 0 0 0 0 0

Total # of neighbors = 2
Ave neighs/atom = 1
Neighbor list builds = 0
Dangerous builds = 0
undump	dmp
delete_atoms group  atom_j
Deleted 1 atoms, new total = 1
next c
#undump dmp_local
#uncompute deltas
jump in.mag_2 loop
variable c loop 20 40
#separation between the atoms
variable sep equal ${c}*${atom_rad}/10
variable sep equal 25*${atom_rad}/10
variable sep equal 25*1/10
print "separation distance = ${sep}"
separation distance = 2.5

create_atoms	1 single 0 0 -${sep}
create_atoms	1 single 0 0 -2.5
Created 1 atoms
group           atom_j id 2
1 atoms in group atom_j

set     atom 2 diameter ${atom_dia}
set     atom 2 diameter 2
  1 settings made for diameter


dump  dmp all custom 1 post_two_par_SHA_2/dump_$c_*.liggghts id type fx fy fz x y z radius mux muy muz
dump  dmp all custom 1 post_two_par_SHA_2/dump_25_*.liggghts id type fx fy fz x y z radius mux muy muz
#dump_modify dmp format "%d %d %1.23f %1.23f %1.23f %1.23f %1.23f %1.23f %1.23f %1.23f %1.23f %1.23f"

#fix	1 nve_group nve/sphere

reset_timestep 0
run	2
Setting up run at Sat Mar  4 23:50:05 2023

Memory usage per processor = 9.36274 Mbytes
    Step    Atoms         KinEng            CPU 
       0        2              0              0 
       2        2              0      17.547991 
Loop time of 17.548 on 1 procs for 2 steps with 2 atoms, finish time Sat Mar  4 23:50:31 2023


Pair  time (%) = 2.3077e-05 (0.000131508)
Neigh time (%) = 0 (0)
Comm  time (%) = 7.47e-07 (4.2569e-06)
Outpt time (%) = 0.000253177 (0.00144277)
Other time (%) = 17.5477 (99.9984)

Nlocal:    2 ave 2 max 2 min
Histogram: 1 0 0 0 0 0 0 0 0 0
Nghost:    0 ave 0 max 0 min
Histogram: 1 0 0 0 0 0 0 0 0 0
Neighs:    1 ave 1 max 1 min
Histogram: 1 0 0 0 0 0 0 0 0 0
FullNghs: 2 ave 2 max 2 min
Histogram: 1 0 0 0 0 0 0 0 0 0

Total # of neighbors = 2
Ave neighs/atom = 1
Neighbor list builds = 0
Dangerous builds = 0
undump	dmp
delete_atoms group  atom_j
Deleted 1 atoms, new total = 1
next c
#undump dmp_local
#uncompute deltas
jump in.mag_2 loop
variable c loop 20 40
#separation between the atoms
variable sep equal ${c}*${atom_rad}/10
variable sep equal 26*${atom_rad}/10
variable sep equal 26*1/10
print "separation distance = ${sep}"
separation distance = 2.6

create_atoms	1 single 0 0 -${sep}
create_atoms	1 single 0 0 -2.6
Created 1 atoms
group           atom_j id 2
1 atoms in group atom_j

set     atom 2 diameter ${atom_dia}
set     atom 2 diameter 2
  1 settings made for diameter


dump  dmp all custom 1 post_two_par_SHA_2/dump_$c_*.liggghts id type fx fy fz x y z radius mux muy muz
dump  dmp all custom 1 post_two_par_SHA_2/dump_26_*.liggghts id type fx fy fz x y z radius mux muy muz
#dump_modify dmp format "%d %d %1.23f %1.23f %1.23f %1.23f %1.23f %1.23f %1.23f %1.23f %1.23f %1.23f"

#fix	1 nve_group nve/sphere

reset_timestep 0
run	2
Setting up run at Sat Mar  4 23:50:31 2023

Memory usage per processor = 9.36274 Mbytes
    Step    Atoms         KinEng            CPU 
       0        2              0              0 
       2        2              0      16.187077 
Loop time of 16.1871 on 1 procs for 2 steps with 2 atoms, finish time Sat Mar  4 23:50:55 2023


Pair  time (%) = 7.421e-06 (4.58452e-05)
Neigh time (%) = 0 (0)
Comm  time (%) = 8.5e-07 (5.2511e-06)
Outpt time (%) = 0.000311285 (0.00192305)
Other time (%) = 16.1868 (99.998)

Nlocal:    2 ave 2 max 2 min
Histogram: 1 0 0 0 0 0 0 0 0 0
Nghost:    0 ave 0 max 0 min
Histogram: 1 0 0 0 0 0 0 0 0 0
Neighs:    1 ave 1 max 1 min
Histogram: 1 0 0 0 0 0 0 0 0 0
FullNghs: 2 ave 2 max 2 min
Histogram: 1 0 0 0 0 0 0 0 0 0

Total # of neighbors = 2
Ave neighs/atom = 1
Neighbor list builds = 0
Dangerous builds = 0
undump	dmp
delete_atoms group  atom_j
Deleted 1 atoms, new total = 1
next c
#undump dmp_local
#uncompute deltas
jump in.mag_2 loop
variable c loop 20 40
#separation between the atoms
variable sep equal ${c}*${atom_rad}/10
variable sep equal 27*${atom_rad}/10
variable sep equal 27*1/10
print "separation distance = ${sep}"
separation distance = 2.7

create_atoms	1 single 0 0 -${sep}
create_atoms	1 single 0 0 -2.7
Created 1 atoms
group           atom_j id 2
1 atoms in group atom_j

set     atom 2 diameter ${atom_dia}
set     atom 2 diameter 2
  1 settings made for diameter


dump  dmp all custom 1 post_two_par_SHA_2/dump_$c_*.liggghts id type fx fy fz x y z radius mux muy muz
dump  dmp all custom 1 post_two_par_SHA_2/dump_27_*.liggghts id type fx fy fz x y z radius mux muy muz
#dump_modify dmp format "%d %d %1.23f %1.23f %1.23f %1.23f %1.23f %1.23f %1.23f %1.23f %1.23f %1.23f"

#fix	1 nve_group nve/sphere

reset_timestep 0
run	2
Setting up run at Sat Mar  4 23:50:55 2023

Memory usage per processor = 9.36274 Mbytes
    Step    Atoms         KinEng            CPU 
       0        2              0              0 
       2        2              0      15.930917 
Loop time of 15.9309 on 1 procs for 2 steps with 2 atoms, finish time Sat Mar  4 23:51:19 2023


Pair  time (%) = 6.203e-06 (3.89368e-05)
Neigh time (%) = 0 (0)
Comm  time (%) = 1.05e-06 (6.59095e-06)
Outpt time (%) = 0.000314108 (0.00197169)
Other time (%) = 15.9306 (99.998)

Nlocal:    2 ave 2 max 2 min
Histogram: 1 0 0 0 0 0 0 0 0 0
Nghost:    0 ave 0 max 0 min
Histogram: 1 0 0 0 0 0 0 0 0 0
Neighs:    1 ave 1 max 1 min
Histogram: 1 0 0 0 0 0 0 0 0 0
FullNghs: 2 ave 2 max 2 min
Histogram: 1 0 0 0 0 0 0 0 0 0

Total # of neighbors = 2
Ave neighs/atom = 1
Neighbor list builds = 0
Dangerous builds = 0
undump	dmp
delete_atoms group  atom_j
Deleted 1 atoms, new total = 1
next c
#undump dmp_local
#uncompute deltas
jump in.mag_2 loop
variable c loop 20 40
#separation between the atoms
variable sep equal ${c}*${atom_rad}/10
variable sep equal 28*${atom_rad}/10
variable sep equal 28*1/10
print "separation distance = ${sep}"
separation distance = 2.8

create_atoms	1 single 0 0 -${sep}
create_atoms	1 single 0 0 -2.8
Created 1 atoms
group           atom_j id 2
1 atoms in group atom_j

set     atom 2 diameter ${atom_dia}
set     atom 2 diameter 2
  1 settings made for diameter


dump  dmp all custom 1 post_two_par_SHA_2/dump_$c_*.liggghts id type fx fy fz x y z radius mux muy muz
dump  dmp all custom 1 post_two_par_SHA_2/dump_28_*.liggghts id type fx fy fz x y z radius mux muy muz
#dump_modify dmp format "%d %d %1.23f %1.23f %1.23f %1.23f %1.23f %1.23f %1.23f %1.23f %1.23f %1.23f"

#fix	1 nve_group nve/sphere

reset_timestep 0
run	2
Setting up run at Sat Mar  4 23:51:19 2023

Memory usage per processor = 9.36274 Mbytes
    Step    Atoms         KinEng            CPU 
       0        2              0              0 
       2        2              0      15.918484 
Loop time of 15.9185 on 1 procs for 2 steps with 2 atoms, finish time Sat Mar  4 23:51:44 2023


Pair  time (%) = 5.252e-06 (3.29931e-05)
Neigh time (%) = 0 (0)
Comm  time (%) = 7.46e-07 (4.68637e-06)
Outpt time (%) = 0.000277665 (0.00174429)
Other time (%) = 15.9182 (99.9982)

Nlocal:    2 ave 2 max 2 min
Histogram: 1 0 0 0 0 0 0 0 0 0
Nghost:    0 ave 0 max 0 min
Histogram: 1 0 0 0 0 0 0 0 0 0
Neighs:    1 ave 1 max 1 min
Histogram: 1 0 0 0 0 0 0 0 0 0
FullNghs: 2 ave 2 max 2 min
Histogram: 1 0 0 0 0 0 0 0 0 0

Total # of neighbors = 2
Ave neighs/atom = 1
Neighbor list builds = 0
Dangerous builds = 0
undump	dmp
delete_atoms group  atom_j
Deleted 1 atoms, new total = 1
next c
#undump dmp_local
#uncompute deltas
jump in.mag_2 loop
variable c loop 20 40
#separation between the atoms
variable sep equal ${c}*${atom_rad}/10
variable sep equal 29*${atom_rad}/10
variable sep equal 29*1/10
print "separation distance = ${sep}"
separation distance = 2.9

create_atoms	1 single 0 0 -${sep}
create_atoms	1 single 0 0 -2.9
Created 1 atoms
group           atom_j id 2
1 atoms in group atom_j

set     atom 2 diameter ${atom_dia}
set     atom 2 diameter 2
  1 settings made for diameter


dump  dmp all custom 1 post_two_par_SHA_2/dump_$c_*.liggghts id type fx fy fz x y z radius mux muy muz
dump  dmp all custom 1 post_two_par_SHA_2/dump_29_*.liggghts id type fx fy fz x y z radius mux muy muz
#dump_modify dmp format "%d %d %1.23f %1.23f %1.23f %1.23f %1.23f %1.23f %1.23f %1.23f %1.23f %1.23f"

#fix	1 nve_group nve/sphere

reset_timestep 0
run	2
Setting up run at Sat Mar  4 23:51:44 2023

Memory usage per processor = 9.36274 Mbytes
    Step    Atoms         KinEng            CPU 
       0        2              0              0 
       2        2              0      16.268158 
Loop time of 16.2682 on 1 procs for 2 steps with 2 atoms, finish time Sat Mar  4 23:52:09 2023


Pair  time (%) = 5.16e-06 (3.17184e-05)
Neigh time (%) = 0 (0)
Comm  time (%) = 6.48e-07 (3.98324e-06)
Outpt time (%) = 0.000288572 (0.00177384)
Other time (%) = 16.2679 (99.9982)

Nlocal:    2 ave 2 max 2 min
Histogram: 1 0 0 0 0 0 0 0 0 0
Nghost:    0 ave 0 max 0 min
Histogram: 1 0 0 0 0 0 0 0 0 0
Neighs:    1 ave 1 max 1 min
Histogram: 1 0 0 0 0 0 0 0 0 0
FullNghs: 2 ave 2 max 2 min
Histogram: 1 0 0 0 0 0 0 0 0 0

Total # of neighbors = 2
Ave neighs/atom = 1
Neighbor list builds = 0
Dangerous builds = 0
undump	dmp
delete_atoms group  atom_j
Deleted 1 atoms, new total = 1
next c
#undump dmp_local
#uncompute deltas
jump in.mag_2 loop
variable c loop 20 40
#separation between the atoms
variable sep equal ${c}*${atom_rad}/10
variable sep equal 30*${atom_rad}/10
variable sep equal 30*1/10
print "separation distance = ${sep}"
separation distance = 3

create_atoms	1 single 0 0 -${sep}
create_atoms	1 single 0 0 -3
Created 1 atoms
group           atom_j id 2
1 atoms in group atom_j

set     atom 2 diameter ${atom_dia}
set     atom 2 diameter 2
  1 settings made for diameter


dump  dmp all custom 1 post_two_par_SHA_2/dump_$c_*.liggghts id type fx fy fz x y z radius mux muy muz
dump  dmp all custom 1 post_two_par_SHA_2/dump_30_*.liggghts id type fx fy fz x y z radius mux muy muz
#dump_modify dmp format "%d %d %1.23f %1.23f %1.23f %1.23f %1.23f %1.23f %1.23f %1.23f %1.23f %1.23f"

#fix	1 nve_group nve/sphere

reset_timestep 0
run	2
Setting up run at Sat Mar  4 23:52:09 2023

Memory usage per processor = 9.36274 Mbytes
    Step    Atoms         KinEng            CPU 
       0        2              0              0 
       2        2              0      18.414297 
Loop time of 18.4143 on 1 procs for 2 steps with 2 atoms, finish time Sat Mar  4 23:52:35 2023


Pair  time (%) = 4.909e-06 (2.66586e-05)
Neigh time (%) = 0 (0)
Comm  time (%) = 7.3e-07 (3.96431e-06)
Outpt time (%) = 0.000269648 (0.00146434)
Other time (%) = 18.414 (99.9985)

Nlocal:    2 ave 2 max 2 min
Histogram: 1 0 0 0 0 0 0 0 0 0
Nghost:    0 ave 0 max 0 min
Histogram: 1 0 0 0 0 0 0 0 0 0
Neighs:    1 ave 1 max 1 min
Histogram: 1 0 0 0 0 0 0 0 0 0
FullNghs: 2 ave 2 max 2 min
Histogram: 1 0 0 0 0 0 0 0 0 0

Total # of neighbors = 2
Ave neighs/atom = 1
Neighbor list builds = 0
Dangerous builds = 0
undump	dmp
delete_atoms group  atom_j
Deleted 1 atoms, new total = 1
next c
#undump dmp_local
#uncompute deltas
jump in.mag_2 loop
variable c loop 20 40
#separation between the atoms
variable sep equal ${c}*${atom_rad}/10
variable sep equal 31*${atom_rad}/10
variable sep equal 31*1/10
print "separation distance = ${sep}"
separation distance = 3.1

create_atoms	1 single 0 0 -${sep}
create_atoms	1 single 0 0 -3.1
Created 1 atoms
group           atom_j id 2
1 atoms in group atom_j

set     atom 2 diameter ${atom_dia}
set     atom 2 diameter 2
  1 settings made for diameter


dump  dmp all custom 1 post_two_par_SHA_2/dump_$c_*.liggghts id type fx fy fz x y z radius mux muy muz
dump  dmp all custom 1 post_two_par_SHA_2/dump_31_*.liggghts id type fx fy fz x y z radius mux muy muz
#dump_modify dmp format "%d %d %1.23f %1.23f %1.23f %1.23f %1.23f %1.23f %1.23f %1.23f %1.23f %1.23f"

#fix	1 nve_group nve/sphere

reset_timestep 0
run	2
Setting up run at Sat Mar  4 23:52:35 2023

Memory usage per processor = 9.36274 Mbytes
    Step    Atoms         KinEng            CPU 
       0        2              0              0 
       2        2              0      16.035305 
Loop time of 16.0353 on 1 procs for 2 steps with 2 atoms, finish time Sat Mar  4 23:52:59 2023


Pair  time (%) = 5e-06 (3.11812e-05)
Neigh time (%) = 0 (0)
Comm  time (%) = 8.26e-07 (5.15113e-06)
Outpt time (%) = 0.000253852 (0.00158308)
Other time (%) = 16.0351 (99.9984)

Nlocal:    2 ave 2 max 2 min
Histogram: 1 0 0 0 0 0 0 0 0 0
Nghost:    0 ave 0 max 0 min
Histogram: 1 0 0 0 0 0 0 0 0 0
Neighs:    1 ave 1 max 1 min
Histogram: 1 0 0 0 0 0 0 0 0 0
FullNghs: 2 ave 2 max 2 min
Histogram: 1 0 0 0 0 0 0 0 0 0

Total # of neighbors = 2
Ave neighs/atom = 1
Neighbor list builds = 0
Dangerous builds = 0
undump	dmp
delete_atoms group  atom_j
Deleted 1 atoms, new total = 1
next c
#undump dmp_local
#uncompute deltas
jump in.mag_2 loop
variable c loop 20 40
#separation between the atoms
variable sep equal ${c}*${atom_rad}/10
variable sep equal 32*${atom_rad}/10
variable sep equal 32*1/10
print "separation distance = ${sep}"
separation distance = 3.2

create_atoms	1 single 0 0 -${sep}
create_atoms	1 single 0 0 -3.2
Created 1 atoms
group           atom_j id 2
1 atoms in group atom_j

set     atom 2 diameter ${atom_dia}
set     atom 2 diameter 2
  1 settings made for diameter


dump  dmp all custom 1 post_two_par_SHA_2/dump_$c_*.liggghts id type fx fy fz x y z radius mux muy muz
dump  dmp all custom 1 post_two_par_SHA_2/dump_32_*.liggghts id type fx fy fz x y z radius mux muy muz
#dump_modify dmp format "%d %d %1.23f %1.23f %1.23f %1.23f %1.23f %1.23f %1.23f %1.23f %1.23f %1.23f"

#fix	1 nve_group nve/sphere

reset_timestep 0
run	2
Setting up run at Sat Mar  4 23:52:59 2023

Memory usage per processor = 9.36274 Mbytes
    Step    Atoms         KinEng            CPU 
       0        2              0              0 
       2        2              0      18.025485 
Loop time of 18.0255 on 1 procs for 2 steps with 2 atoms, finish time Sat Mar  4 23:53:26 2023


Pair  time (%) = 4.862e-06 (2.69729e-05)
Neigh time (%) = 0 (0)
Comm  time (%) = 9.35e-07 (5.1871e-06)
Outpt time (%) = 0.000252292 (0.00139964)
Other time (%) = 18.0252 (99.9986)

Nlocal:    2 ave 2 max 2 min
Histogram: 1 0 0 0 0 0 0 0 0 0
Nghost:    0 ave 0 max 0 min
Histogram: 1 0 0 0 0 0 0 0 0 0
Neighs:    1 ave 1 max 1 min
Histogram: 1 0 0 0 0 0 0 0 0 0
FullNghs: 2 ave 2 max 2 min
Histogram: 1 0 0 0 0 0 0 0 0 0

Total # of neighbors = 2
Ave neighs/atom = 1
Neighbor list builds = 0
Dangerous builds = 0
undump	dmp
delete_atoms group  atom_j
Deleted 1 atoms, new total = 1
next c
#undump dmp_local
#uncompute deltas
jump in.mag_2 loop
variable c loop 20 40
#separation between the atoms
variable sep equal ${c}*${atom_rad}/10
variable sep equal 33*${atom_rad}/10
variable sep equal 33*1/10
print "separation distance = ${sep}"
separation distance = 3.3

create_atoms	1 single 0 0 -${sep}
create_atoms	1 single 0 0 -3.3
Created 1 atoms
group           atom_j id 2
1 atoms in group atom_j

set     atom 2 diameter ${atom_dia}
set     atom 2 diameter 2
  1 settings made for diameter


dump  dmp all custom 1 post_two_par_SHA_2/dump_$c_*.liggghts id type fx fy fz x y z radius mux muy muz
dump  dmp all custom 1 post_two_par_SHA_2/dump_33_*.liggghts id type fx fy fz x y z radius mux muy muz
#dump_modify dmp format "%d %d %1.23f %1.23f %1.23f %1.23f %1.23f %1.23f %1.23f %1.23f %1.23f %1.23f"

#fix	1 nve_group nve/sphere

reset_timestep 0
run	2
Setting up run at Sat Mar  4 23:53:26 2023

Memory usage per processor = 9.36274 Mbytes
    Step    Atoms         KinEng            CPU 
       0        2              0              0 
       2        2              0      16.003349 
Loop time of 16.0034 on 1 procs for 2 steps with 2 atoms, finish time Sat Mar  4 23:53:51 2023


Pair  time (%) = 5.743e-06 (3.58862e-05)
Neigh time (%) = 0 (0)
Comm  time (%) = 7.02e-07 (4.38658e-06)
Outpt time (%) = 0.000293138 (0.00183173)
Other time (%) = 16.0031 (99.9981)

Nlocal:    2 ave 2 max 2 min
Histogram: 1 0 0 0 0 0 0 0 0 0
Nghost:    0 ave 0 max 0 min
Histogram: 1 0 0 0 0 0 0 0 0 0
Neighs:    1 ave 1 max 1 min
Histogram: 1 0 0 0 0 0 0 0 0 0
FullNghs: 2 ave 2 max 2 min
Histogram: 1 0 0 0 0 0 0 0 0 0

Total # of neighbors = 2
Ave neighs/atom = 1
Neighbor list builds = 0
Dangerous builds = 0
undump	dmp
delete_atoms group  atom_j
Deleted 1 atoms, new total = 1
next c
#undump dmp_local
#uncompute deltas
jump in.mag_2 loop
variable c loop 20 40
#separation between the atoms
variable sep equal ${c}*${atom_rad}/10
variable sep equal 34*${atom_rad}/10
variable sep equal 34*1/10
print "separation distance = ${sep}"
separation distance = 3.4

create_atoms	1 single 0 0 -${sep}
create_atoms	1 single 0 0 -3.4
Created 1 atoms
group           atom_j id 2
1 atoms in group atom_j

set     atom 2 diameter ${atom_dia}
set     atom 2 diameter 2
  1 settings made for diameter


dump  dmp all custom 1 post_two_par_SHA_2/dump_$c_*.liggghts id type fx fy fz x y z radius mux muy muz
dump  dmp all custom 1 post_two_par_SHA_2/dump_34_*.liggghts id type fx fy fz x y z radius mux muy muz
#dump_modify dmp format "%d %d %1.23f %1.23f %1.23f %1.23f %1.23f %1.23f %1.23f %1.23f %1.23f %1.23f"

#fix	1 nve_group nve/sphere

reset_timestep 0
run	2
Setting up run at Sat Mar  4 23:53:51 2023

Memory usage per processor = 9.36274 Mbytes
    Step    Atoms         KinEng            CPU 
       0        2              0              0 
       2        2              0      15.622336 
Loop time of 15.6223 on 1 procs for 2 steps with 2 atoms, finish time Sat Mar  4 23:54:16 2023


Pair  time (%) = 5.466e-06 (3.49883e-05)
Neigh time (%) = 0 (0)
Comm  time (%) = 6.96e-07 (4.45516e-06)
Outpt time (%) = 0.00028575 (0.00182911)
Other time (%) = 15.6221 (99.9981)

Nlocal:    2 ave 2 max 2 min
Histogram: 1 0 0 0 0 0 0 0 0 0
Nghost:    0 ave 0 max 0 min
Histogram: 1 0 0 0 0 0 0 0 0 0
Neighs:    1 ave 1 max 1 min
Histogram: 1 0 0 0 0 0 0 0 0 0
FullNghs: 2 ave 2 max 2 min
Histogram: 1 0 0 0 0 0 0 0 0 0

Total # of neighbors = 2
Ave neighs/atom = 1
Neighbor list builds = 0
Dangerous builds = 0
undump	dmp
delete_atoms group  atom_j
Deleted 1 atoms, new total = 1
next c
#undump dmp_local
#uncompute deltas
jump in.mag_2 loop
variable c loop 20 40
#separation between the atoms
variable sep equal ${c}*${atom_rad}/10
variable sep equal 35*${atom_rad}/10
variable sep equal 35*1/10
print "separation distance = ${sep}"
separation distance = 3.5

create_atoms	1 single 0 0 -${sep}
create_atoms	1 single 0 0 -3.5
Created 1 atoms
group           atom_j id 2
1 atoms in group atom_j

set     atom 2 diameter ${atom_dia}
set     atom 2 diameter 2
  1 settings made for diameter


dump  dmp all custom 1 post_two_par_SHA_2/dump_$c_*.liggghts id type fx fy fz x y z radius mux muy muz
dump  dmp all custom 1 post_two_par_SHA_2/dump_35_*.liggghts id type fx fy fz x y z radius mux muy muz
#dump_modify dmp format "%d %d %1.23f %1.23f %1.23f %1.23f %1.23f %1.23f %1.23f %1.23f %1.23f %1.23f"

#fix	1 nve_group nve/sphere

reset_timestep 0
run	2
Setting up run at Sat Mar  4 23:54:16 2023

Memory usage per processor = 9.36274 Mbytes
    Step    Atoms         KinEng            CPU 
       0        2              0              0 
       2        2              0      17.858432 
Loop time of 17.8584 on 1 procs for 2 steps with 2 atoms, finish time Sat Mar  4 23:54:43 2023


Pair  time (%) = 5.996e-06 (3.35752e-05)
Neigh time (%) = 0 (0)
Comm  time (%) = 7.03e-07 (3.93651e-06)
Outpt time (%) = 0.000229327 (0.00128414)
Other time (%) = 17.8582 (99.9987)

Nlocal:    2 ave 2 max 2 min
Histogram: 1 0 0 0 0 0 0 0 0 0
Nghost:    0 ave 0 max 0 min
Histogram: 1 0 0 0 0 0 0 0 0 0
Neighs:    1 ave 1 max 1 min
Histogram: 1 0 0 0 0 0 0 0 0 0
FullNghs: 2 ave 2 max 2 min
Histogram: 1 0 0 0 0 0 0 0 0 0

Total # of neighbors = 2
Ave neighs/atom = 1
Neighbor list builds = 0
Dangerous builds = 0
undump	dmp
delete_atoms group  atom_j
Deleted 1 atoms, new total = 1
next c
#undump dmp_local
#uncompute deltas
jump in.mag_2 loop
variable c loop 20 40
#separation between the atoms
variable sep equal ${c}*${atom_rad}/10
variable sep equal 36*${atom_rad}/10
variable sep equal 36*1/10
print "separation distance = ${sep}"
separation distance = 3.6

create_atoms	1 single 0 0 -${sep}
create_atoms	1 single 0 0 -3.6
Created 1 atoms
group           atom_j id 2
1 atoms in group atom_j

set     atom 2 diameter ${atom_dia}
set     atom 2 diameter 2
  1 settings made for diameter


dump  dmp all custom 1 post_two_par_SHA_2/dump_$c_*.liggghts id type fx fy fz x y z radius mux muy muz
dump  dmp all custom 1 post_two_par_SHA_2/dump_36_*.liggghts id type fx fy fz x y z radius mux muy muz
#dump_modify dmp format "%d %d %1.23f %1.23f %1.23f %1.23f %1.23f %1.23f %1.23f %1.23f %1.23f %1.23f"

#fix	1 nve_group nve/sphere

reset_timestep 0
run	2
Setting up run at Sat Mar  4 23:54:43 2023

Memory usage per processor = 9.36274 Mbytes
    Step    Atoms         KinEng            CPU 
       0        2              0              0 
       2        2              0      17.423174 
Loop time of 17.4232 on 1 procs for 2 steps with 2 atoms, finish time Sat Mar  4 23:55:08 2023


Pair  time (%) = 5.492e-06 (3.15212e-05)
Neigh time (%) = 0 (0)
Comm  time (%) = 7.9e-07 (4.53419e-06)
Outpt time (%) = 0.000277924 (0.00159514)
Other time (%) = 17.4229 (99.9984)

Nlocal:    2 ave 2 max 2 min
Histogram: 1 0 0 0 0 0 0 0 0 0
Nghost:    0 ave 0 max 0 min
Histogram: 1 0 0 0 0 0 0 0 0 0
Neighs:    1 ave 1 max 1 min
Histogram: 1 0 0 0 0 0 0 0 0 0
FullNghs: 2 ave 2 max 2 min
Histogram: 1 0 0 0 0 0 0 0 0 0

Total # of neighbors = 2
Ave neighs/atom = 1
Neighbor list builds = 0
Dangerous builds = 0
undump	dmp
delete_atoms group  atom_j
Deleted 1 atoms, new total = 1
next c
#undump dmp_local
#uncompute deltas
jump in.mag_2 loop
variable c loop 20 40
#separation between the atoms
variable sep equal ${c}*${atom_rad}/10
variable sep equal 37*${atom_rad}/10
variable sep equal 37*1/10
print "separation distance = ${sep}"
separation distance = 3.7

create_atoms	1 single 0 0 -${sep}
create_atoms	1 single 0 0 -3.7
Created 1 atoms
group           atom_j id 2
1 atoms in group atom_j

set     atom 2 diameter ${atom_dia}
set     atom 2 diameter 2
  1 settings made for diameter


dump  dmp all custom 1 post_two_par_SHA_2/dump_$c_*.liggghts id type fx fy fz x y z radius mux muy muz
dump  dmp all custom 1 post_two_par_SHA_2/dump_37_*.liggghts id type fx fy fz x y z radius mux muy muz
#dump_modify dmp format "%d %d %1.23f %1.23f %1.23f %1.23f %1.23f %1.23f %1.23f %1.23f %1.23f %1.23f"

#fix	1 nve_group nve/sphere

reset_timestep 0
run	2
Setting up run at Sat Mar  4 23:55:08 2023

Memory usage per processor = 9.36274 Mbytes
    Step    Atoms         KinEng            CPU 
       0        2              0              0 
       2        2              0      17.820004 
Loop time of 17.82 on 1 procs for 2 steps with 2 atoms, finish time Sat Mar  4 23:55:35 2023


Pair  time (%) = 5.627e-06 (3.15769e-05)
Neigh time (%) = 0 (0)
Comm  time (%) = 7.52e-07 (4.21997e-06)
Outpt time (%) = 0.000339612 (0.00190579)
Other time (%) = 17.8197 (99.9981)

Nlocal:    2 ave 2 max 2 min
Histogram: 1 0 0 0 0 0 0 0 0 0
Nghost:    0 ave 0 max 0 min
Histogram: 1 0 0 0 0 0 0 0 0 0
Neighs:    1 ave 1 max 1 min
Histogram: 1 0 0 0 0 0 0 0 0 0
FullNghs: 2 ave 2 max 2 min
Histogram: 1 0 0 0 0 0 0 0 0 0

Total # of neighbors = 2
Ave neighs/atom = 1
Neighbor list builds = 0
Dangerous builds = 0
undump	dmp
delete_atoms group  atom_j
Deleted 1 atoms, new total = 1
next c
#undump dmp_local
#uncompute deltas
jump in.mag_2 loop
variable c loop 20 40
#separation between the atoms
variable sep equal ${c}*${atom_rad}/10
variable sep equal 38*${atom_rad}/10
variable sep equal 38*1/10
print "separation distance = ${sep}"
separation distance = 3.8

create_atoms	1 single 0 0 -${sep}
create_atoms	1 single 0 0 -3.8
Created 1 atoms
group           atom_j id 2
1 atoms in group atom_j

set     atom 2 diameter ${atom_dia}
set     atom 2 diameter 2
  1 settings made for diameter


dump  dmp all custom 1 post_two_par_SHA_2/dump_$c_*.liggghts id type fx fy fz x y z radius mux muy muz
dump  dmp all custom 1 post_two_par_SHA_2/dump_38_*.liggghts id type fx fy fz x y z radius mux muy muz
#dump_modify dmp format "%d %d %1.23f %1.23f %1.23f %1.23f %1.23f %1.23f %1.23f %1.23f %1.23f %1.23f"

#fix	1 nve_group nve/sphere

reset_timestep 0
run	2
Setting up run at Sat Mar  4 23:55:35 2023

Memory usage per processor = 9.36274 Mbytes
    Step    Atoms         KinEng            CPU 
       0        2              0              0 
       2        2              0      16.726225 
Loop time of 16.7262 on 1 procs for 2 steps with 2 atoms, finish time Sat Mar  4 23:55:59 2023


Pair  time (%) = 5.627e-06 (3.36418e-05)
Neigh time (%) = 0 (0)
Comm  time (%) = 6.99e-07 (4.17906e-06)
Outpt time (%) = 0.000257864 (0.00154167)
Other time (%) = 16.726 (99.9984)

Nlocal:    2 ave 2 max 2 min
Histogram: 1 0 0 0 0 0 0 0 0 0
Nghost:    0 ave 0 max 0 min
Histogram: 1 0 0 0 0 0 0 0 0 0
Neighs:    1 ave 1 max 1 min
Histogram: 1 0 0 0 0 0 0 0 0 0
FullNghs: 2 ave 2 max 2 min
Histogram: 1 0 0 0 0 0 0 0 0 0

Total # of neighbors = 2
Ave neighs/atom = 1
Neighbor list builds = 0
Dangerous builds = 0
undump	dmp
delete_atoms group  atom_j
Deleted 1 atoms, new total = 1
next c
#undump dmp_local
#uncompute deltas
jump in.mag_2 loop
variable c loop 20 40
#separation between the atoms
variable sep equal ${c}*${atom_rad}/10
variable sep equal 39*${atom_rad}/10
variable sep equal 39*1/10
print "separation distance = ${sep}"
separation distance = 3.9

create_atoms	1 single 0 0 -${sep}
create_atoms	1 single 0 0 -3.9
Created 1 atoms
group           atom_j id 2
1 atoms in group atom_j

set     atom 2 diameter ${atom_dia}
set     atom 2 diameter 2
  1 settings made for diameter


dump  dmp all custom 1 post_two_par_SHA_2/dump_$c_*.liggghts id type fx fy fz x y z radius mux muy muz
dump  dmp all custom 1 post_two_par_SHA_2/dump_39_*.liggghts id type fx fy fz x y z radius mux muy muz
#dump_modify dmp format "%d %d %1.23f %1.23f %1.23f %1.23f %1.23f %1.23f %1.23f %1.23f %1.23f %1.23f"

#fix	1 nve_group nve/sphere

reset_timestep 0
run	2
Setting up run at Sat Mar  4 23:55:59 2023

Memory usage per processor = 9.36274 Mbytes
    Step    Atoms         KinEng            CPU 
       0        2              0              0 
       2        2              0      16.543817 
Loop time of 16.5438 on 1 procs for 2 steps with 2 atoms, finish time Sat Mar  4 23:56:25 2023


Pair  time (%) = 4.944e-06 (2.98843e-05)
Neigh time (%) = 0 (0)
Comm  time (%) = 7.88e-07 (4.76311e-06)
Outpt time (%) = 0.000260778 (0.00157629)
Other time (%) = 16.5436 (99.9984)

Nlocal:    2 ave 2 max 2 min
Histogram: 1 0 0 0 0 0 0 0 0 0
Nghost:    0 ave 0 max 0 min
Histogram: 1 0 0 0 0 0 0 0 0 0
Neighs:    1 ave 1 max 1 min
Histogram: 1 0 0 0 0 0 0 0 0 0
FullNghs: 2 ave 2 max 2 min
Histogram: 1 0 0 0 0 0 0 0 0 0

Total # of neighbors = 2
Ave neighs/atom = 1
Neighbor list builds = 0
Dangerous builds = 0
undump	dmp
delete_atoms group  atom_j
Deleted 1 atoms, new total = 1
next c
#undump dmp_local
#uncompute deltas
jump in.mag_2 loop
variable c loop 20 40
#separation between the atoms
variable sep equal ${c}*${atom_rad}/10
variable sep equal 40*${atom_rad}/10
variable sep equal 40*1/10
print "separation distance = ${sep}"
separation distance = 4

create_atoms	1 single 0 0 -${sep}
create_atoms	1 single 0 0 -4
Created 1 atoms
group           atom_j id 2
1 atoms in group atom_j

set     atom 2 diameter ${atom_dia}
set     atom 2 diameter 2
  1 settings made for diameter


dump  dmp all custom 1 post_two_par_SHA_2/dump_$c_*.liggghts id type fx fy fz x y z radius mux muy muz
dump  dmp all custom 1 post_two_par_SHA_2/dump_40_*.liggghts id type fx fy fz x y z radius mux muy muz
#dump_modify dmp format "%d %d %1.23f %1.23f %1.23f %1.23f %1.23f %1.23f %1.23f %1.23f %1.23f %1.23f"

#fix	1 nve_group nve/sphere

reset_timestep 0
run	2
Setting up run at Sat Mar  4 23:56:25 2023

Memory usage per processor = 9.36274 Mbytes
    Step    Atoms         KinEng            CPU 
       0        2              0              0 
       2        2              0      17.158812 
Loop time of 17.1588 on 1 procs for 2 steps with 2 atoms, finish time Sat Mar  4 23:56:50 2023


Pair  time (%) = 5.886e-06 (3.43031e-05)
Neigh time (%) = 0 (0)
Comm  time (%) = 6.95e-07 (4.05039e-06)
Outpt time (%) = 0.000239663 (0.00139673)
Other time (%) = 17.1586 (99.9986)

Nlocal:    2 ave 2 max 2 min
Histogram: 1 0 0 0 0 0 0 0 0 0
Nghost:    0 ave 0 max 0 min
Histogram: 1 0 0 0 0 0 0 0 0 0
Neighs:    1 ave 1 max 1 min
Histogram: 1 0 0 0 0 0 0 0 0 0
FullNghs: 2 ave 2 max 2 min
Histogram: 1 0 0 0 0 0 0 0 0 0

Total # of neighbors = 2
Ave neighs/atom = 1
Neighbor list builds = 0
Dangerous builds = 0
undump	dmp
delete_atoms group  atom_j
Deleted 1 atoms, new total = 1
next c
#undump dmp_local
#uncompute deltas
jump in.mag_2 loop
