LIGGGHTS (Version LIGGGHTS-PUBLIC 3.8.0, compiled 2023-01-12-18:19:57 by anmol, git commit unknown)
atom_style	hybrid granular dipole
boundary	f f f
newton		off
atom_modify	sort 10000 0

communicate	single vel yes
units		si
processors	1 1 1

variable reg_dim equal .1 #meters

region		reg block -${reg_dim} ${reg_dim} -${reg_dim} ${reg_dim} -${reg_dim} ${reg_dim} units box
region		reg block -0.1 ${reg_dim} -${reg_dim} ${reg_dim} -${reg_dim} ${reg_dim} units box
region		reg block -0.1 0.1 -${reg_dim} ${reg_dim} -${reg_dim} ${reg_dim} units box
region		reg block -0.1 0.1 -0.1 ${reg_dim} -${reg_dim} ${reg_dim} units box
region		reg block -0.1 0.1 -0.1 0.1 -${reg_dim} ${reg_dim} units box
region		reg block -0.1 0.1 -0.1 0.1 -0.1 ${reg_dim} units box
region		reg block -0.1 0.1 -0.1 0.1 -0.1 0.1 units box
create_box	1 reg
Created orthogonal box = (-0.1 -0.1 -0.1) to (0.1 0.1 0.1)
  1 by 1 by 1 MPI processor grid
neighbor	2 bin
neigh_modify	delay 0 every 1

hard_particles	yes


fix 		m1 all property/global youngsModulus peratomtype 6e6
fix 		m2 all property/global poissonsRatio peratomtype 0.278
fix 		m3 all property/global coefficientRestitution peratomtypepair 1 0.06
fix 		m4 all property/global coefficientFriction peratomtypepair 1 0.4
fix 		m6 all property/global cohesionEnergyDensity peratomtypepair 1 0.01

fix m7 all property/global magneticSusceptibility peratomtype 0.96


pair_style gran model hertz tangential history #cohesion sjkr
pair_coeff	* *

timestep	1e-10 # seconds

#index of simulations
# variable a loop 10
#radius of atoms
variable atom_rad equal 1.4E-6 #meters
#diameter of atoms
variable atom_dia equal 2*${atom_rad}
variable atom_dia equal 2*1.4e-06
#separation between the atoms
variable sep equal 2.2*${atom_rad}
variable sep equal 2.2*1.4e-06

create_atoms	1 single 0 0 0
Created 1 atoms
create_atoms	1 single 0 0 ${sep}
create_atoms	1 single 0 0 3.08e-06
Created 1 atoms

set		atom 1 diameter ${atom_dia}
set		atom 1 diameter 2.8e-06
  1 settings made for diameter
set     atom 2 diameter ${atom_dia}
set     atom 2 diameter 2.8e-06
  1 settings made for diameter


#                       x   y   z
fix	mag all magnetic    0   6e-4 0

dump    dmp all custom 1 post/dump*.liggghts id type fx fy fz x y z radius mux muy muz
#dump_modify dmp format "%d %d %1.23f %1.23f %1.23f %1.23f %1.23f %1.23f %1.23f %1.23f %1.23f %1.23f"

#fix	1 nve_group nve/sphere

run	1
Setting up run at Thu Jan 12 18:20:24 2023

Memory usage per processor = 9.41566 Mbytes
    Step    Atoms         KinEng            CPU 
       0        2              0              0 
       1        2              0      6.9636401 
Loop time of 6.96367 on 1 procs for 1 steps with 2 atoms, finish time Thu Jan 12 18:20:38 2023


Pair  time (%) = 2.359e-06 (3.38758e-05)
Neigh time (%) = 0 (0)
Comm  time (%) = 1.49e-07 (2.13968e-06)
Outpt time (%) = 0.000184793 (0.00265367)
Other time (%) = 6.96348 (99.9973)

Nlocal:    2 ave 2 max 2 min
Histogram: 1 0 0 0 0 0 0 0 0 0
Nghost:    0 ave 0 max 0 min
Histogram: 1 0 0 0 0 0 0 0 0 0
Neighs:    1 ave 1 max 1 min
Histogram: 1 0 0 0 0 0 0 0 0 0
FullNghs: 2 ave 2 max 2 min
Histogram: 1 0 0 0 0 0 0 0 0 0

Total # of neighbors = 2
Ave neighs/atom = 1
Neighbor list builds = 0
Dangerous builds = 0
