ITEM: TIMESTEP
1
ITEM: NUMBER OF ATOMS
2
ITEM: BOX BOUNDS ff ff ff
-10 10
-10 10
-10 10
ITEM: ATOMS id type fx fy fz x y z radius mux muy muz 
2 1 -1.80833e-20 -4.91938e-21 -2.44381e-08 0 0 -3.3 1 0 3.11989 0 
1 1 1.61573e-20 -7.35989e-21 2.44381e-08 0 0 0 1 0 3.11989 0 
