ITEM: TIMESTEP
2
ITEM: NUMBER OF ATOMS
2
ITEM: BOX BOUNDS ff ff ff
-10 10
-10 10
-10 10
ITEM: ATOMS id type fx fy fz x y z radius mux muy muz 
2 1 -4.84297e-21 2.70174e-20 -1.55804e-08 0 0 -3.7 1 0 3.12616 0 
1 1 5.58849e-21 2.6743e-20 1.55804e-08 0 0 0 1 0 3.12616 0 
