ITEM: TIMESTEP
2
ITEM: NUMBER OF ATOMS
2
ITEM: BOX BOUNDS ff ff ff
-10 10
-10 10
-10 10
ITEM: ATOMS id type fx fy fz x y z radius mux muy muz 
2 1 1.62521e-20 -1.9572e-20 -1.11554e-07 0 0 -2.2 1 0 3.06952 0 
1 1 2.59802e-21 6.40285e-21 1.11554e-07 0 0 0 1 0 3.06952 0 
