ITEM: TIMESTEP
2
ITEM: NUMBER OF ATOMS
2
ITEM: BOX BOUNDS ff ff ff
-10 10
-10 10
-10 10
ITEM: ATOMS id type fx fy fz x y z radius mux muy muz 
2 1 2.30775e-20 3.96482e-21 -1.26526e-08 0 0 -3.9 1 0 3.12841 0 
1 1 -2.36544e-20 4.44869e-21 1.26526e-08 0 0 0 1 0 3.12841 0 
