ITEM: TIMESTEP
0
ITEM: NUMBER OF ATOMS
2
ITEM: BOX BOUNDS ff ff ff
-10 10
-10 10
-10 10
ITEM: ATOMS id type fx fy fz x y z radius mux muy muz 
2 1 -1.6894e-21 4.01864e-21 -1.26527e-08 0 0 -3.9 1 0 3.12841 0 
1 1 2.35352e-20 8.83705e-21 1.26527e-08 0 0 0 1 0 3.12841 0 
