ITEM: TIMESTEP
0
ITEM: NUMBER OF ATOMS
2
ITEM: BOX BOUNDS ff ff ff
-10 10
-10 10
-10 10
ITEM: ATOMS id type fx fy fz x y z radius mux muy muz 
2 1 -1.42636e-20 -7.97394e-21 -3.54302e-08 0 0 -3 1 0 3.1128 0 
1 1 -1.71865e-21 -2.74217e-21 3.54302e-08 0 0 0 1 0 3.11277 0 
