ITEM: TIMESTEP
0
ITEM: NUMBER OF ATOMS
2
ITEM: BOX BOUNDS ff ff ff
-10 10
-10 10
-10 10
ITEM: ATOMS id type fx fy fz x y z radius mux muy muz 
2 1 -7.72163e-21 1.32316e-20 -2.44383e-08 0 0 -3.3 1 0 3.1199 0 
1 1 -6.55867e-21 1.27992e-20 2.44383e-08 0 0 0 1 0 3.11989 0 
