ITEM: TIMESTEP
2
ITEM: NUMBER OF ATOMS
2
ITEM: BOX BOUNDS ff ff ff
-10 10
-10 10
-10 10
ITEM: ATOMS id type fx fy fz x y z radius mux muy muz 
2 1 -4.56524e-20 1.19254e-20 -1.30145e-07 0 0 -2.1 1 0 3.05901 0 
1 1 5.3228e-21 -1.54956e-20 1.30145e-07 0 0 0 1 0 3.05901 0 
