ITEM: TIMESTEP
0
ITEM: NUMBER OF ATOMS
2
ITEM: BOX BOUNDS ff ff ff
-10 10
-10 10
-10 10
ITEM: ATOMS id type fx fy fz x y z radius mux muy muz 
2 1 1.19166e-20 4.09923e-22 -1.11563e-07 0 0 -2.2 1 0 3.06977 0 
1 1 2.09556e-20 -1.26349e-20 1.11563e-07 0 0 0 1 0 3.06952 0 
