ITEM: TIMESTEP
0
ITEM: NUMBER OF ATOMS
2
ITEM: BOX BOUNDS ff ff ff
-10 10
-10 10
-10 10
ITEM: ATOMS id type fx fy fz x y z radius mux muy muz 
2 1 1.57349e-20 -5.33249e-21 -1.73592e-08 0 0 -3.6 1 0 3.12486 0 
1 1 -7.86675e-21 1.4654e-20 1.73592e-08 0 0 0 1 0 3.12485 0 
