ITEM: TIMESTEP
2
ITEM: NUMBER OF ATOMS
2
ITEM: BOX BOUNDS ff ff ff
-10 10
-10 10
-10 10
ITEM: ATOMS id type fx fy fz x y z radius mux muy muz 
2 1 1.46937e-20 -2.50961e-20 -1.51636e-07 0 0 -2 1 0 3.04639 0 
1 1 -7.97836e-21 1.20695e-20 1.51636e-07 0 0 0 1 0 3.04639 0 
