ITEM: TIMESTEP
1
ITEM: NUMBER OF ATOMS
2
ITEM: BOX BOUNDS ff ff ff
-10 10
-10 10
-10 10
ITEM: ATOMS id type fx fy fz x y z radius mux muy muz 
2 1 1.69963e-20 2.64565e-21 -1.14454e-08 0 0 -4 1 0 3.12937 0 
1 1 1.12222e-20 -5.29945e-21 1.14454e-08 0 0 0 1 0 3.12937 0 
