ITEM: TIMESTEP
1
ITEM: NUMBER OF ATOMS
2
ITEM: BOX BOUNDS ff ff ff
-10 10
-10 10
-10 10
ITEM: ATOMS id type fx fy fz x y z radius mux muy muz 
2 1 -1.34202e-20 1.40755e-20 -2.17378e-08 0 0 -3.4 1 0 3.12174 0 
1 1 -1.39101e-20 -8.31027e-21 2.17378e-08 0 0 0 1 0 3.12174 0 
