ITEM: TIMESTEP
0
ITEM: NUMBER OF ATOMS
2
ITEM: BOX BOUNDS ff ff ff
-10 10
-10 10
-10 10
ITEM: ATOMS id type fx fy fz x y z radius mux muy muz 
2 1 4.29193e-22 -7.2908e-21 -8.21816e-08 0 0 -2.4 1 0 3.08592 0 
1 1 2.82961e-20 -1.91052e-20 8.21816e-08 0 0 0 1 0 3.08579 0 
