ITEM: TIMESTEP
1
ITEM: NUMBER OF ATOMS
2
ITEM: BOX BOUNDS ff ff ff
-10 10
-10 10
-10 10
ITEM: ATOMS id type fx fy fz x y z radius mux muy muz 
2 1 -1.56836e-20 -6.30316e-21 -1.55804e-08 0 0 -3.7 1 0 3.12616 0 
1 1 -2.66411e-20 2.29721e-20 1.55804e-08 0 0 0 1 0 3.12616 0 
