ITEM: TIMESTEP
0
ITEM: NUMBER OF ATOMS
2
ITEM: BOX BOUNDS ff ff ff
-10 10
-10 10
-10 10
ITEM: ATOMS id type fx fy fz x y z radius mux muy muz 
2 1 2.22304e-21 1.39629e-20 -1.14455e-08 0 0 -4 1 0 3.12937 0 
1 1 2.32429e-20 2.12748e-20 1.14455e-08 0 0 0 1 0 3.12937 0 
