ITEM: TIMESTEP
2
ITEM: NUMBER OF ATOMS
2
ITEM: BOX BOUNDS ff ff ff
-10 10
-10 10
-10 10
ITEM: ATOMS id type fx fy fz x y z radius mux muy muz 
2 1 -1.44645e-20 -5.11658e-21 -2.44381e-08 0 0 -3.3 1 0 3.11989 0 
1 1 1.64147e-20 -4.33674e-21 2.44381e-08 0 0 0 1 0 3.11989 0 
