ITEM: TIMESTEP
1
ITEM: NUMBER OF ATOMS
2
ITEM: BOX BOUNDS ff ff ff
-10 10
-10 10
-10 10
ITEM: ATOMS id type fx fy fz x y z radius mux muy muz 
2 1 -3.7569e-20 8.12624e-22 -1.93965e-08 0 0 -3.5 1 0 3.12338 0 
1 1 2.44891e-20 4.8322e-21 1.93965e-08 0 0 0 1 0 3.12338 0 
