ITEM: TIMESTEP
1
ITEM: NUMBER OF ATOMS
2
ITEM: BOX BOUNDS ff ff ff
-10 10
-10 10
-10 10
ITEM: ATOMS id type fx fy fz x y z radius mux muy muz 
2 1 -5.24886e-21 -1.78895e-21 -6.11825e-08 0 0 -2.6 1 0 3.09753 0 
1 1 2.11177e-20 -1.36729e-20 6.11825e-08 0 0 0 1 0 3.09753 0 
