ITEM: TIMESTEP
2
ITEM: NUMBER OF ATOMS
2
ITEM: BOX BOUNDS ff ff ff
-10 10
-10 10
-10 10
ITEM: ATOMS id type fx fy fz x y z radius mux muy muz 
2 1 8.37026e-21 9.02503e-21 -1.73592e-08 0 0 -3.6 1 0 3.12485 0 
1 1 -1.0124e-20 8.39803e-21 1.73592e-08 0 0 0 1 0 3.12485 0 
