ITEM: TIMESTEP
0
ITEM: NUMBER OF ATOMS
2
ITEM: BOX BOUNDS ff ff ff
-10 10
-10 10
-10 10
ITEM: ATOMS id type fx fy fz x y z radius mux muy muz 
2 1 -4.51667e-21 -7.76745e-21 -1.40221e-08 0 0 -3.8 1 0 3.12735 0 
1 1 7.65201e-21 4.41835e-21 1.40221e-08 0 0 0 1 0 3.12734 0 
