ITEM: TIMESTEP
0
ITEM: NUMBER OF ATOMS
2
ITEM: BOX BOUNDS ff ff ff
-10 10
-10 10
-10 10
ITEM: ATOMS id type fx fy fz x y z radius mux muy muz 
2 1 4.70308e-22 9.65844e-21 -4.0387e-08 0 0 -2.9 1 0 3.10975 0 
1 1 -1.79901e-20 7.5078e-21 4.0387e-08 0 0 0 1 0 3.10972 0 
