ITEM: TIMESTEP
0
ITEM: NUMBER OF ATOMS
2
ITEM: BOX BOUNDS ff ff ff
-10 10
-10 10
-10 10
ITEM: ATOMS id type fx fy fz x y z radius mux muy muz 
2 1 -1.29407e-20 -1.06916e-21 -6.11856e-08 0 0 -2.6 1 0 3.09761 0 
1 1 3.46845e-21 7.69646e-21 6.11856e-08 0 0 0 1 0 3.09753 0 
