ITEM: TIMESTEP
2
ITEM: NUMBER OF ATOMS
2
ITEM: BOX BOUNDS ff ff ff
-10 10
-10 10
-10 10
ITEM: ATOMS id type fx fy fz x y z radius mux muy muz 
2 1 -1.17808e-20 -1.29013e-20 -9.56598e-08 0 0 -2.3 1 0 3.07834 0 
1 1 9.75601e-21 -6.86906e-21 9.56598e-08 0 0 0 1 0 3.07834 0 
