ITEM: TIMESTEP
1
ITEM: NUMBER OF ATOMS
1
ITEM: BOX BOUNDS ff ff ff
-10 10
-10 10
-10 10
ITEM: ATOMS id type fx fy fz x y z radius mux muy muz 
3 1 4.8446e-21 9.35217e-21 -1.36233e-07 0 0 -3.1 1 0 7.05484 0 
