ITEM: TIMESTEP
1
ITEM: NUMBER OF ATOMS
1
ITEM: BOX BOUNDS ff ff ff
-10 10
-10 10
-10 10
ITEM: ATOMS id type fx fy fz x y z radius mux muy muz 
3 1 9.84305e-21 7.9162e-21 -6.24426e-08 0 0 -3.8 1 0 7.11176 0 
