ITEM: TIMESTEP
12000
ITEM: NUMBER OF ATOMS
300
ITEM: BOX BOUNDS mm mm mm
-1 1
-1 1
-0.05 2.85
ITEM: ATOMS id type x y z vx vy vz radius fx fy fz mass 
68 1 -0.0997213 0.185271 1.93252 0 -0.5 -3.08906 0.015 0 0 -0.346714 0.0353429 
137 1 -0.0863027 0.227682 1.94026 -0.00924354 -0.479856 -3.0662 0.015 0 0 -0.346714 0.0353429 
33 1 -0.129286 0.376605 1.945 0 -0.5 -3.04913 0.025 0 0 -1.60516 0.163625 
45 1 -0.0943793 0.136238 1.94838 0 -0.5 -3.03824 0.025 0 0 -1.60516 0.163625 
119 1 -0.0370509 0.125189 1.96463 0 -0.5 -2.98537 0.015 0 0 -0.346714 0.0353429 
75 1 -0.0493142 0.175672 1.97409 0 -0.5 -2.95407 0.015 0 0 -0.346714 0.0353429 
89 1 -0.129145 0.204308 1.97758 0 -0.5 -2.9425 0.015 0 0 -0.346714 0.0353429 
122 1 -0.0720401 0.197034 1.94841 0.00811842 -0.517403 -3.03662 0.015 0 0 -0.346714 0.0353429 
43 1 -0.116198 0.287785 1.96004 0 -0.5 -3.00037 0.025 0 0 -1.60516 0.163625 
78 1 -0.0422369 0.383955 1.96888 0 -0.5 -2.97134 0.015 0 0 -0.346714 0.0353429 
111 1 -0.0487783 0.4201 1.96037 0 -0.5 -2.9993 0.015 0 0 -0.346714 0.0353429 
116 1 -0.0662489 0.232653 2.00509 0.36535 -0.287166 -3.02728 0.015 0 0 -0.346714 0.0353429 
59 1 -0.0865612 0.332868 1.98525 0 -0.5 -2.91679 0.015 0 0 -0.346714 0.0353429 
92 1 -0.131017 0.427327 1.99333 0 -0.5 -2.88952 0.015 0 0 -0.346714 0.0353429 
8 1 -0.104188 0.143463 2.03151 0 -0.5 -2.75679 0.025 0 0 -1.60516 0.163625 
26 1 -0.104362 0.21414 2.02902 0.14857 -0.341553 -2.85857 0.025 0 0 -1.60516 0.163625 
98 1 -0.147127 0.276442 2.02276 0 -0.5 -2.78779 0.015 0 0 -0.346714 0.0353429 
3 1 -0.141317 0.341388 2.03551 0 -0.5 -2.74257 0.025 0 0 -1.60516 0.163625 
151 1 -0.0686397 0.358527 2.02246 0 -0.5 -2.78887 0.015 0 0 -0.346714 0.0353429 
51 1 -0.15027 0.175567 2.07236 -0.0265052 -0.519812 -2.59335 0.025 0 0 -1.60516 0.163625 
117 1 -0.0596227 0.155021 2.06223 0 -0.5 -2.64525 0.015 0 0 -0.346714 0.0353429 
100 1 -0.0681017 0.211921 2.05217 0 -0.5 -2.68233 0.015 0 0 -0.346714 0.0353429 
140 1 -0.125739 0.253556 2.04972 0 -0.5 -2.69126 0.015 0 0 -0.346714 0.0353429 
72 1 -0.105673 0.378796 2.04236 0 -0.5 -2.71794 0.015 0 0 -0.346714 0.0353429 
118 1 -0.0372647 0.413681 2.05474 0 -0.5 -2.67292 0.015 0 0 -0.346714 0.0353429 
40 1 -0.104474 0.430198 2.05028 0 -0.5 -2.6892 0.025 0 0 -1.60516 0.163625 
60 1 -0.0770515 0.163928 2.09957 0 -0.5 -2.50291 0.015 0 0 -0.346714 0.0353429 
148 1 -0.115636 0.258175 2.10075 -0.171679 -0.397353 -2.69459 0.015 0 0 -0.346714 0.0353429 
11 1 -0.104535 0.314163 2.1004 0 -0.5 -2.49967 0.025 0 0 -1.60516 0.163625 
50 1 -0.130982 0.388355 2.10025 0 -0.5 -2.50026 0.025 0 0 -1.60516 0.163625 
90 1 -0.146535 0.431667 2.09025 0 -0.5 -2.53921 0.015 0 0 -0.346714 0.0353429 
44 1 -0.125916 0.155597 2.12673 0 -0.5 -2.39412 0.025 0 0 -1.60516 0.163625 
105 1 -0.102595 0.257226 2.12848 -0.215094 -0.173726 -2.56579 0.015 0 0 -0.346714 0.0353429 
74 1 -0.0790012 0.375893 2.1154 0 -0.5 -2.44013 0.015 0 0 -0.346714 0.0353429 
29 1 -0.0788351 0.418182 2.13327 0 -0.5 -2.36714 0.025 0 0 -1.60516 0.163625 
76 1 -0.0202065 0.40407 2.12222 0 -0.5 -2.41256 0.015 0 0 -0.346714 0.0353429 
36 1 -0.103411 0.202312 2.1358 0 -0.5 -2.35664 0.025 0 0 -1.60516 0.163625 
73 1 -0.0639552 0.181767 2.16296 0 -0.5 -2.24079 0.015 0 0 -0.346714 0.0353429 
114 1 -0.0719016 0.232352 2.15062 -0.00040144 -0.499666 -2.29443 0.015 0 0 -0.346714 0.0353429 
54 1 -0.128271 0.246477 2.13996 -0.0956439 -0.529683 -2.30534 0.015 0 0 -0.346714 0.0353429 
2 1 -0.110349 0.329071 2.16528 0 -0.5 -2.23058 0.025 0 0 -1.60516 0.163625 
113 1 -0.118506 0.453198 2.16037 0 -0.5 -2.25207 0.015 0 0 -0.346714 0.0353429 
146 1 -0.109965 0.168916 2.17199 0 -0.5 -2.20086 0.015 0 0 -0.346714 0.0353429 
99 1 -0.146283 0.233517 2.18783 0 -0.5 -2.12915 0.015 0 0 -0.346714 0.0353429 
57 1 -0.120673 0.285061 2.18278 0 -0.5 -2.1522 0.015 0 0 -0.346714 0.0353429 
88 1 -0.0666498 0.395919 2.17845 0 -0.5 -2.17192 0.015 0 0 -0.346714 0.0353429 
12 1 -0.0363281 0.438336 2.17139 0 -0.5 -2.20361 0.025 0 0 -1.60516 0.163625 
67 1 -0.0183057 0.176389 2.21452 0 -0.5 -2.00231 0.015 0 0 -0.346714 0.0353429 
24 1 -0.138394 0.202357 2.21939 -0 0 -2 0.025 0 0 0 0.163625 
66 1 -0.0281121 0.220823 2.20452 0 -0.5 -2.05077 0.015 0 0 -0.346714 0.0353429 
83 1 -0.108229 0.263146 2.20152 0 -0.5 -2.06509 0.015 0 0 -0.346714 0.0353429 
19 1 -0.0715757 0.243252 2.20297 0 -0.5 -2.05812 0.025 0 0 -1.60516 0.163625 
133 1 -0.127566 0.317989 2.22283 -0 0 -2 0.015 0 0 0 0.0353429 
10 1 -0.0985872 0.348255 2.21869 -0 0 -2 0.025 0 0 0 0.163625 
34 1 -0.138562 0.402511 2.1993 0 -0.5 -2.07559 0.025 0 0 -1.60516 0.163625 
95 1 -0.10482 0.405012 2.2242 -0 0 -2 0.015 0 0 0 0.0353429 
81 1 -0.051385 0.403999 2.20598 0 -0.5 -2.0437 0.015 0 0 -0.346714 0.0353429 
71 1 -0.145263 0.446198 2.20773 0 -0.5 -2.03537 0.015 0 0 -0.346714 0.0353429 
39 1 -0.0696793 0.4547 2.22426 -0 0 -2 0.025 0 0 0 0.163625 
28 1 -0.0685748 0.19761 2.24885 -0 0 -2 0.025 0 0 0 0.163625 
70 1 -0.107191 0.223969 2.23882 -0 0 -2 0.015 0 0 0 0.0353429 
97 1 -0.0338223 0.225584 2.24525 -0 0 -2 0.015 0 0 0 0.0353429 
103 1 -0.135939 0.242982 2.23397 -0 0 -2 0.015 0 0 0 0.0353429 
115 1 -0.076478 0.260831 2.24542 -0 0 -2 0.015 0 0 0 0.0353429 
126 1 -0.11117 0.322121 2.24919 -0 0 -2 0.015 0 0 0 0.0353429 
85 1 -0.13789 0.382175 2.24637 -0 0 -2 0.015 0 0 0 0.0353429 
134 1 -0.137197 0.420922 2.25278 -0 0 -2 0.015 0 0 0 0.0353429 
77 1 -0.0297287 0.448599 2.2556 -0 0 -2 0.015 0 0 0 0.0353429 
120 1 -0.148569 0.468911 2.25642 -0 0 -2 0.015 0 0 0 0.0353429 
143 1 -0.11631 0.460077 2.23743 -0 0 -2 0.015 0 0 0 0.0353429 
96 1 -0.131998 0.220986 2.26339 -0 0 -2 0.015 0 0 0 0.0353429 
38 1 -0.121616 0.260048 2.27157 -0 0 -2 0.025 0 0 0 0.163625 
130 1 -0.0642546 0.250466 2.28691 -0 0 -2 0.015 0 0 0 0.0353429 
23 1 -0.134189 0.392634 2.28655 -0 0 -2 0.025 0 0 0 0.163625 
110 1 -0.0868918 0.176082 2.31235 -0 0 -2 0.015 0 0 0 0.0353429 
31 1 -0.140814 0.189187 2.30177 -0 0 -2 0.025 0 0 0 0.163625 
93 1 -0.0244706 0.186478 2.31773 -0 0 -2 0.015 0 0 0 0.0353429 
150 1 -0.100106 0.224977 2.29593 -0 0 -2 0.015 0 0 0 0.0353429 
136 1 -0.0832352 0.392978 2.31913 -0 0 -2 0.015 0 0 0 0.0353429 
18 1 -0.106015 0.455331 2.29642 -0 0 -2 0.025 0 0 0 0.163625 
4 1 -0.0330873 0.468582 2.29612 -0 0 -2 0.025 0 0 0 0.163625 
108 1 -0.089121 0.201884 2.33878 -0 0 -2 0.015 0 0 0 0.0353429 
69 1 -0.020474 0.219918 2.34767 -0 0 -2 0.015 0 0 0 0.0353429 
17 1 -0.134634 0.299667 2.32045 -0 0 -2 0.025 0 0 0 0.163625 
30 1 -0.0481876 0.420042 2.32227 -0 0 -2 0.025 0 0 0 0.163625 
106 1 -0.102883 0.446824 2.34643 -0 0 -2 0.015 0 0 0 0.0353429 
109 1 -0.0676248 0.46737 2.32184 -0 0 -2 0.015 0 0 0 0.0353429 
102 1 -0.11709 0.195969 2.36274 -0 0 -2 0.015 0 0 0 0.0353429 
14 1 -0.0571303 0.18696 2.36707 -0 0 -2 0.025 0 0 0 0.163625 
141 1 -0.136875 0.266764 2.37301 -0 0 -2 0.015 0 0 0 0.0353429 
139 1 -0.104092 0.253657 2.36267 -0 0 -2 0.015 0 0 0 0.0353429 
144 1 -0.0691235 0.256654 2.3623 -0 0 -2 0.015 0 0 0 0.0353429 
22 1 -0.102489 0.321901 2.36063 -0 0 -2 0.025 0 0 0 0.163625 
35 1 -0.146938 0.392962 2.35032 -0 0 -2 0.025 0 0 0 0.163625 
55 1 -0.0959971 0.425903 2.36897 -0 0 -2 0.015 0 0 0 0.0353429 
21 1 -0.0470047 0.46853 2.37888 -0 0 -2 0.025 0 0 0 0.163625 
107 1 -0.141609 0.176798 2.39562 -0 0 -2 0.015 0 0 0 0.0353429 
112 1 -0.073338 0.257454 2.40631 -0 0 -2 0.015 0 0 0 0.0353429 
94 1 -0.127866 0.29863 2.40184 -0 0 -2 0.015 0 0 0 0.0353429 
84 1 -0.116406 0.338316 2.4049 -0 0 -2 0.015 0 0 0 0.0353429 
87 1 -0.113676 0.385123 2.38487 -0 0 -2 0.015 0 0 0 0.0353429 
147 1 -0.100309 0.450661 2.40209 -0 0 -2 0.015 0 0 0 0.0353429 
1 1 -0.142366 0.459394 2.38237 -0 0 -2 0.025 0 0 0 0.163625 
32 1 -0.149633 0.185622 2.43466 -0 0 -2 0.025 0 0 0 0.163625 
142 1 -0.0724928 0.196693 2.41523 -0 0 -2 0.015 0 0 0 0.0353429 
6 1 -0.109435 0.215083 2.42684 -0 0 -2 0.025 0 0 0 0.163625 
135 1 -0.140472 0.259953 2.43476 -0 0 -2 0.015 0 0 0 0.0353429 
149 1 -0.107316 0.253342 2.4149 -0 0 -2 0.015 0 0 0 0.0353429 
15 1 -0.0916636 0.308509 2.42868 -0 0 -2 0.025 0 0 0 0.163625 
80 1 -0.102893 0.380978 2.42268 -0 0 -2 0.015 0 0 0 0.0353429 
47 1 -0.140465 0.419385 2.41527 -0 0 -2 0.025 0 0 0 0.163625 
145 1 -0.0934491 0.411838 2.41612 -0 0 -2 0.015 0 0 0 0.0353429 
62 1 -0.0849655 0.467496 2.43466 -0 0 -2 0.015 0 0 0 0.0353429 
138 1 -0.0317395 0.192376 2.44276 -0 0 -2 0.015 0 0 0 0.0353429 
129 1 -0.0553418 0.210019 2.46772 -0 0 -2 0.015 0 0 0 0.0353429 
128 1 -0.145291 0.342562 2.44347 -0 0 -2 0.015 0 0 0 0.0353429 
121 1 -0.0679495 0.444838 2.45197 -0 0 -2 0.015 0 0 0 0.0353429 
61 1 -0.0231802 0.176945 2.47897 -0 0 -2 0.015 0 0 0 0.0353429 
52 1 -0.100497 0.1916 2.48256 -0 0 -2 0.015 0 0 0 0.0353429 
79 1 -0.0179342 0.210984 2.479 -0 0 -2 0.015 0 0 0 0.0353429 
5 1 -0.137704 0.218352 2.48725 -0 0 -2 0.025 0 0 0 0.163625 
7 1 -0.0712578 0.257024 2.48871 -0 0 -2 0.025 0 0 0 0.163625 
13 1 -0.146779 0.291061 2.47406 -0 0 -2 0.025 0 0 0 0.163625 
101 1 -0.102489 0.301504 2.47229 -0 0 -2 0.015 0 0 0 0.0353429 
20 1 -0.124339 0.346193 2.4858 -0 0 -2 0.025 0 0 0 0.163625 
91 1 -0.124131 0.396082 2.47921 -0 0 -2 0.015 0 0 0 0.0353429 
37 1 -0.0716655 0.404405 2.47205 -0 0 -2 0.025 0 0 0 0.163625 
46 1 -0.032303 0.465744 2.47431 -0 0 -2 0.025 0 0 0 0.163625 
65 1 -0.147981 0.187337 2.51804 -0 0 -2 0.015 0 0 0 0.0353429 
58 1 -0.0969698 0.285666 2.51191 -0 0 -2 0.015 0 0 0 0.0353429 
86 1 -0.142939 0.382764 2.50419 -0 0 -2 0.015 0 0 0 0.0353429 
124 1 -0.136447 0.411167 2.51185 -0 0 -2 0.015 0 0 0 0.0353429 
9 1 -0.0320364 0.416484 2.50571 -0 0 -2 0.025 0 0 0 0.163625 
131 1 -0.025873 0.449155 2.53054 -0 0 -2 0.015 0 0 0 0.0353429 
41 1 -0.107908 0.465288 2.51689 -0 0 -2 0.025 0 0 0 0.163625 
49 1 -0.0613084 0.18937 2.55236 -0 0 -2 0.025 0 0 0 0.163625 
132 1 -0.0234712 0.214078 2.54338 -0 0 -2 0.015 0 0 0 0.0353429 
48 1 -0.144727 0.271852 2.54301 -0 0 -2 0.025 0 0 0 0.163625 
53 1 -0.106432 0.3161 2.54398 -0 0 -2 0.015 0 0 0 0.0353429 
104 1 -0.138444 0.347252 2.53486 -0 0 -2 0.015 0 0 0 0.0353429 
16 1 -0.129915 0.412384 2.5538 -0 0 -2 0.025 0 0 0 0.163625 
82 1 -0.0851821 0.402207 2.55669 -0 0 -2 0.015 0 0 0 0.0353429 
27 1 -0.0637137 0.439115 2.55409 -0 0 -2 0.025 0 0 0 0.163625 
25 1 -0.104447 0.217985 2.57421 -0 0 -2 0.025 0 0 0 0.163625 
127 1 -0.0304133 0.231126 2.56899 -0 0 -2 0.015 0 0 0 0.0353429 
42 1 -0.132916 0.309326 2.58088 -0 0 -2 0.025 0 0 0 0.163625 
123 1 -0.11925 0.365597 2.58258 -0 0 -2 0.015 0 0 0 0.0353429 
125 1 -0.0960051 0.419402 2.58992 -0 0 -2 0.015 0 0 0 0.0353429 
64 1 -0.145219 0.427667 2.58904 -0 0 -2 0.015 0 0 0 0.0353429 
63 1 -0.147823 0.467223 2.56096 -0 0 -2 0.015 0 0 0 0.0353429 
56 1 -0.11556 0.462639 2.56892 -0 0 -2 0.015 0 0 0 0.0353429 
289 1 0.0940889 0.277932 1.89766 0.0203384 -0.134604 -3.46735 0.015 0 0 -0.346714 0.0353429 
203 1 0.0667127 0.123233 1.94696 0 -0.5 -3.04285 0.015 0 0 -0.346714 0.0353429 
284 1 0.0765149 0.154696 1.93713 0 -0.5 -3.07434 0.015 0 0 -0.346714 0.0353429 
213 1 0.0350777 0.36257 1.94704 0 -0.5 -3.04256 0.015 0 0 -0.346714 0.0353429 
272 1 0.0168276 0.397548 1.94425 0 -0.5 -3.05158 0.015 0 0 -0.346714 0.0353429 
259 1 0.149131 0.163826 1.96199 0 -0.5 -2.994 0.015 0 0 -0.346714 0.0353429 
263 1 0.025742 0.184494 1.96896 0 -0.5 -2.97104 0.015 0 0 -0.346714 0.0353429 
206 1 0.0812103 0.182034 1.95753 0.0985113 -0.67138 -3.15766 0.015 0 0 -0.346714 0.0353429 
237 1 0.117019 0.184451 1.95767 0 -0.5 -3.00812 0.015 0 0 -0.346714 0.0353429 
199 1 0.0905511 0.233664 1.96596 -0.00278668 -0.321029 -3.13901 0.025 0 0 -1.60516 0.163625 
171 1 0.0955264 0.325107 1.96161 0 -0.5 -2.99527 0.025 0 0 -1.60516 0.163625 
214 1 0.144386 0.309733 1.9526 0 -0.5 -3.02461 0.015 0 0 -0.346714 0.0353429 
226 1 0.110692 0.371304 1.9587 0 -0.5 -3.00479 0.015 0 0 -0.346714 0.0353429 
241 1 0.0849537 0.393018 1.95529 0 -0.5 -3.01587 0.015 0 0 -0.346714 0.0353429 
220 1 0.0338486 0.152731 1.98351 -0.0669262 -0.554313 -2.90883 0.015 0 0 -0.346714 0.0353429 
177 1 0.131731 0.270457 1.98596 0.122099 -0.354776 -2.90841 0.025 0 0 -1.60516 0.163625 
290 1 0.140367 0.309539 1.99937 0 -0.5 -2.86892 0.015 0 0 -0.346714 0.0353429 
166 1 0.0609489 0.427253 2.00862 0 -0.5 -2.83714 0.025 0 0 -1.60516 0.163625 
184 1 0.11251 0.425841 2.00517 0 -0.5 -2.84901 0.025 0 0 -1.60516 0.163625 
222 1 0.123753 0.165661 2.0364 0 -0.5 -2.73933 0.015 0 0 -0.346714 0.0353429 
216 1 0.0785536 0.185962 2.03473 0.0481324 -0.610657 -2.70121 0.015 0 0 -0.346714 0.0353429 
270 1 0.0946744 0.355669 2.02543 0 -0.5 -2.77837 0.015 0 0 -0.346714 0.0353429 
249 1 0.0491797 0.363421 2.01808 0 -0.5 -2.80417 0.015 0 0 -0.346714 0.0353429 
294 1 0.128315 0.388152 2.0341 0 -0.5 -2.74757 0.015 0 0 -0.346714 0.0353429 
180 1 0.0439943 0.182371 2.05567 -0.021889 -0.504465 -2.65662 0.025 0 0 -1.60516 0.163625 
282 1 0.0836091 0.28312 2.06946 -0.2609 -0.673185 -2.57317 0.015 0 0 -0.346714 0.0353429 
253 1 0.123075 0.273069 2.05881 0 -0.5 -2.65791 0.015 0 0 -0.346714 0.0353429 
170 1 0.142407 0.323026 2.05251 0.161731 -0.381986 -2.71091 0.025 0 0 -1.60516 0.163625 
231 1 0.0350342 0.38562 2.05575 0 -0.5 -2.66919 0.015 0 0 -0.346714 0.0353429 
169 1 0.0892107 0.394668 2.06772 0 -0.5 -2.62485 0.025 0 0 -1.60516 0.163625 
209 1 0.0969746 0.161248 2.08295 0 -0.5 -2.56726 0.015 0 0 -0.346714 0.0353429 
278 1 0.113612 0.295965 2.10073 0 -0.5 -2.4984 0.015 0 0 -0.346714 0.0353429 
296 1 0.146983 0.277001 2.10168 0 -0.5 -2.49467 0.015 0 0 -0.346714 0.0353429 
257 1 0.139837 0.408641 2.10099 0 -0.5 -2.49742 0.015 0 0 -0.346714 0.0353429 
235 1 0.134937 0.164385 2.12764 0 -0.5 -2.39039 0.015 0 0 -0.346714 0.0353429 
168 1 0.0261487 0.198104 2.12154 0 -0.5 -2.41531 0.025 0 0 -1.60516 0.163625 
269 1 0.141487 0.193504 2.12009 0 -0.5 -2.42119 0.015 0 0 -0.346714 0.0353429 
185 1 0.0936576 0.242666 2.13111 0 -0.5 -2.37616 0.025 0 0 -1.60516 0.163625 
217 1 0.133752 0.243691 2.12688 0 -0.5 -2.39353 0.015 0 0 -0.346714 0.0353429 
182 1 0.114565 0.353779 2.12496 0 -0.5 -2.40138 0.025 0 0 -1.60516 0.163625 
162 1 0.0478022 0.398457 2.1175 0 -0.5 -2.43169 0.025 0 0 -1.60516 0.163625 
286 1 0.147755 0.44287 2.12635 0 -0.5 -2.39569 0.015 0 0 -0.346714 0.0353429 
176 1 0.0399362 0.450472 2.12692 0 -0.5 -2.39333 0.025 0 0 -1.60516 0.163625 
153 1 0.0895866 0.15876 2.1435 0 -0.5 -2.32437 0.025 0 0 -1.60516 0.163625 
211 1 0.0694768 0.216972 2.15321 0 -0.5 -2.28307 0.015 0 0 -0.346714 0.0353429 
251 1 0.126174 0.311559 2.14988 0 -0.5 -2.29729 0.015 0 0 -0.346714 0.0353429 
291 1 0.140432 0.387523 2.16048 0 -0.5 -2.25158 0.015 0 0 -0.346714 0.0353429 
159 1 0.087245 0.446208 2.16114 0 -0.5 -2.24873 0.025 0 0 -1.60516 0.163625 
175 1 0.0941494 0.198059 2.18956 0 -0.5 -2.1211 0.025 0 0 -1.60516 0.163625 
204 1 0.134881 0.205248 2.1723 0 -0.5 -2.19949 0.015 0 0 -0.346714 0.0353429 
161 1 0.135356 0.26285 2.1718 0 -0.5 -2.20174 0.025 0 0 -1.60516 0.163625 
230 1 0.118982 0.303372 2.18027 0 -0.5 -2.16368 0.015 0 0 -0.346714 0.0353429 
228 1 0.0279693 0.412593 2.17566 0 -0.5 -2.18448 0.015 0 0 -0.346714 0.0353429 
300 1 0.149285 0.44024 2.1674 0 -0.5 -2.22126 0.015 0 0 -0.346714 0.0353429 
250 1 0.138716 0.444193 2.19788 0 -0.5 -2.08226 0.015 0 0 -0.346714 0.0353429 
202 1 0.126943 0.194204 2.22266 -0 0 -2 0.015 0 0 0 0.0353429 
299 1 0.0153001 0.221541 2.20912 0 -0.5 -2.0286 0.015 0 0 -0.346714 0.0353429 
293 1 0.0548164 0.237145 2.20542 0 -0.5 -2.04645 0.015 0 0 -0.346714 0.0353429 
245 1 0.0868358 0.21853 2.22774 -0 0 -2 0.015 0 0 0 0.0353429 
200 1 0.112803 0.253719 2.21674 -0 0 -2 0.025 0 0 0 0.163625 
192 1 0.134392 0.361049 2.20092 0 -0.5 -2.06793 0.025 0 0 -1.60516 0.163625 
255 1 0.0340792 0.41171 2.21962 -0 0 -2 0.015 0 0 0 0.0353429 
285 1 0.0870748 0.398259 2.2017 0 -0.5 -2.06421 0.015 0 0 -0.346714 0.0353429 
252 1 0.131256 0.420269 2.21963 -0 0 -2 0.015 0 0 0 0.0353429 
275 1 0.0211058 0.444962 2.20831 0 -0.5 -2.03252 0.015 0 0 -0.346714 0.0353429 
256 1 0.0868225 0.430057 2.19913 0 -0.5 -2.07637 0.015 0 0 -0.346714 0.0353429 
246 1 0.0494565 0.46501 2.20205 0 -0.5 -2.06254 0.015 0 0 -0.346714 0.0353429 
240 1 0.0956629 0.46188 2.20316 0 -0.5 -2.05724 0.015 0 0 -0.346714 0.0353429 
287 1 0.130384 0.17682 2.25313 -0 0 -2 0.015 0 0 0 0.0353429 
189 1 0.0509787 0.189477 2.23916 -0 0 -2 0.025 0 0 0 0.163625 
288 1 0.0326968 0.220656 2.25817 -0 0 -2 0.015 0 0 0 0.0353429 
247 1 0.0532922 0.24431 2.23602 -0 0 -2 0.015 0 0 0 0.0353429 
154 1 0.116388 0.333622 2.245 -0 0 -2 0.025 0 0 0 0.163625 
190 1 0.11779 0.446077 2.24962 -0 0 -2 0.025 0 0 0 0.163625 
210 1 0.0872868 0.178716 2.27368 -0 0 -2 0.015 0 0 0 0.0353429 
181 1 0.070397 0.216714 2.27754 -0 0 -2 0.025 0 0 0 0.163625 
165 1 0.148355 0.269976 2.27187 -0 0 -2 0.025 0 0 0 0.163625 
152 1 0.089118 0.280769 2.28852 -0 0 -2 0.025 0 0 0 0.163625 
295 1 0.103955 0.389653 2.2597 -0 0 -2 0.015 0 0 0 0.0353429 
156 1 0.0411221 0.437707 2.26094 -0 0 -2 0.025 0 0 0 0.163625 
233 1 0.0406697 0.190327 2.29887 -0 0 -2 0.015 0 0 0 0.0353429 
260 1 0.0198171 0.221855 2.29207 -0 0 -2 0.015 0 0 0 0.0353429 
279 1 0.11959 0.339787 2.29316 -0 0 -2 0.015 0 0 0 0.0353429 
262 1 0.0888361 0.372678 2.29632 -0 0 -2 0.015 0 0 0 0.0353429 
207 1 0.128901 0.387724 2.30566 -0 0 -2 0.015 0 0 0 0.0353429 
234 1 0.0945525 0.423196 2.29371 -0 0 -2 0.015 0 0 0 0.0353429 
194 1 0.131621 0.447751 2.30416 -0 0 -2 0.025 0 0 0 0.163625 
223 1 0.0343911 0.467936 2.31355 -0 0 -2 0.015 0 0 0 0.0353429 
208 1 0.0680799 0.458746 2.29703 -0 0 -2 0.015 0 0 0 0.0353429 
178 1 0.0370442 0.176531 2.34548 -0 0 -2 0.025 0 0 0 0.163625 
212 1 0.0737637 0.196713 2.3281 -0 0 -2 0.015 0 0 0 0.0353429 
236 1 0.111584 0.210187 2.32811 -0 0 -2 0.015 0 0 0 0.0353429 
224 1 0.132465 0.234727 2.34554 -0 0 -2 0.015 0 0 0 0.0353429 
242 1 0.131055 0.286068 2.33837 -0 0 -2 0.015 0 0 0 0.0353429 
191 1 0.0609008 0.410844 2.33004 -0 0 -2 0.025 0 0 0 0.163625 
258 1 0.135516 0.183364 2.36548 -0 0 -2 0.015 0 0 0 0.0353429 
187 1 0.0681893 0.23526 2.37352 -0 0 -2 0.025 0 0 0 0.163625 
221 1 0.0987988 0.270466 2.35023 -0 0 -2 0.015 0 0 0 0.0353429 
179 1 0.136485 0.334335 2.36133 -0 0 -2 0.025 0 0 0 0.163625 
248 1 0.0851139 0.371469 2.36856 -0 0 -2 0.015 0 0 0 0.0353429 
157 1 0.115469 0.419287 2.3755 -0 0 -2 0.025 0 0 0 0.163625 
264 1 0.0357265 0.464363 2.36967 -0 0 -2 0.015 0 0 0 0.0353429 
277 1 0.0674794 0.455945 2.37645 -0 0 -2 0.015 0 0 0 0.0353429 
205 1 0.0941484 0.176621 2.39185 -0 0 -2 0.015 0 0 0 0.0353429 
276 1 0.0937292 0.21136 2.40547 -0 0 -2 0.015 0 0 0 0.0353429 
227 1 0.137271 0.1866 2.39732 -0 0 -2 0.015 0 0 0 0.0353429 
232 1 0.13999 0.251489 2.38733 -0 0 -2 0.015 0 0 0 0.0353429 
172 1 0.128434 0.362446 2.40647 -0 0 -2 0.025 0 0 0 0.163625 
174 1 0.030822 0.423363 2.38781 -0 0 -2 0.025 0 0 0 0.163625 
201 1 0.0267726 0.186335 2.41143 -0 0 -2 0.025 0 0 0 0.163625 
265 1 0.115746 0.204637 2.42881 -0 0 -2 0.015 0 0 0 0.0353429 
225 1 0.0772421 0.22912 2.42696 -0 0 -2 0.015 0 0 0 0.0353429 
158 1 0.0866624 0.276126 2.41074 -0 0 -2 0.025 0 0 0 0.163625 
271 1 0.0988759 0.311205 2.43376 -0 0 -2 0.015 0 0 0 0.0353429 
254 1 0.137401 0.322401 2.41636 -0 0 -2 0.015 0 0 0 0.0353429 
274 1 0.108637 0.339608 2.4331 -0 0 -2 0.015 0 0 0 0.0353429 
183 1 0.0737852 0.400871 2.43743 -0 0 -2 0.025 0 0 0 0.163625 
283 1 0.102888 0.442022 2.42345 -0 0 -2 0.015 0 0 0 0.0353429 
173 1 0.0548933 0.463589 2.42684 -0 0 -2 0.025 0 0 0 0.163625 
229 1 0.102013 0.176876 2.445 -0 0 -2 0.015 0 0 0 0.0353429 
196 1 0.0520917 0.20732 2.45478 -0 0 -2 0.025 0 0 0 0.163625 
163 1 0.107222 0.236676 2.46043 -0 0 -2 0.025 0 0 0 0.163625 
155 1 0.141768 0.302505 2.46115 -0 0 -2 0.025 0 0 0 0.163625 
268 1 0.140569 0.388665 2.47004 -0 0 -2 0.015 0 0 0 0.0353429 
281 1 0.0312292 0.432852 2.45063 -0 0 -2 0.015 0 0 0 0.0353429 
188 1 0.140755 0.442261 2.45641 -0 0 -2 0.025 0 0 0 0.163625 
267 1 0.101401 0.464343 2.46938 -0 0 -2 0.015 0 0 0 0.0353429 
218 1 0.0164873 0.217058 2.49637 -0 0 -2 0.015 0 0 0 0.0353429 
298 1 0.114914 0.351461 2.48845 -0 0 -2 0.015 0 0 0 0.0353429 
197 1 0.0581936 0.42558 2.48816 -0 0 -2 0.025 0 0 0 0.163625 
280 1 0.0367193 0.456786 2.47177 -0 0 -2 0.015 0 0 0 0.0353429 
273 1 0.0779061 0.461373 2.48984 -0 0 -2 0.015 0 0 0 0.0353429 
160 1 0.118533 0.219824 2.52638 -0 0 -2 0.025 0 0 0 0.163625 
238 1 0.105443 0.363301 2.51641 -0 0 -2 0.015 0 0 0 0.0353429 
195 1 0.147227 0.360394 2.52252 -0 0 -2 0.025 0 0 0 0.163625 
167 1 0.118751 0.462916 2.52072 -0 0 -2 0.025 0 0 0 0.163625 
164 1 0.0527853 0.200711 2.53268 -0 0 -2 0.025 0 0 0 0.163625 
261 1 0.0852607 0.230216 2.5509 -0 0 -2 0.015 0 0 0 0.0353429 
215 1 0.0767991 0.264474 2.53577 -0 0 -2 0.015 0 0 0 0.0353429 
297 1 0.141884 0.27502 2.53354 -0 0 -2 0.015 0 0 0 0.0353429 
243 1 0.113126 0.365244 2.5535 -0 0 -2 0.015 0 0 0 0.0353429 
292 1 0.0287531 0.422464 2.53568 -0 0 -2 0.015 0 0 0 0.0353429 
193 1 0.102412 0.413293 2.54852 -0 0 -2 0.025 0 0 0 0.163625 
198 1 0.0617553 0.466461 2.54862 -0 0 -2 0.025 0 0 0 0.163625 
219 1 0.0278687 0.201322 2.57855 -0 0 -2 0.015 0 0 0 0.0353429 
239 1 0.126558 0.237343 2.57531 -0 0 -2 0.015 0 0 0 0.0353429 
186 1 0.10183 0.291927 2.56808 -0 0 -2 0.025 0 0 0 0.163625 
266 1 0.0917737 0.36017 2.58511 -0 0 -2 0.015 0 0 0 0.0353429 
244 1 0.0497502 0.427977 2.57171 -0 0 -2 0.015 0 0 0 0.0353429 
