ITEM: TIMESTEP
2400
ITEM: NUMBER OF ATOMS
300
ITEM: BOX BOUNDS mm mm mm
-1 1
-1 1
-0.05 2.85
ITEM: ATOMS id type x y z vx vy vz radius fx fy fz mass 
119 1 -0.0370509 0.173189 2.20602 0 -0.5 -2.04361 0.015 0 0 -0.346714 0.0353429 
45 1 -0.0943793 0.184238 2.19485 0 -0.5 -2.09648 0.025 0 0 -1.60516 0.163625 
68 1 -0.0997213 0.233271 2.18386 0 -0.5 -2.1473 0.015 0 0 -0.346714 0.0353429 
122 1 -0.0728195 0.246705 2.19472 0.00811842 -0.517403 -2.09486 0.015 0 0 -0.346714 0.0353429 
137 1 -0.0854153 0.273748 2.18941 -0.00924354 -0.479856 -2.12444 0.015 0 0 -0.346714 0.0353429 
43 1 -0.116198 0.335785 2.20287 0 -0.5 -2.05861 0.025 0 0 -1.60516 0.163625 
33 1 -0.129286 0.424605 2.19252 0 -0.5 -2.10737 0.025 0 0 -1.60516 0.163625 
78 1 -0.0422369 0.431955 2.20892 0 -0.5 -2.02958 0.015 0 0 -0.346714 0.0353429 
111 1 -0.0487783 0.4681 2.2031 0 -0.5 -2.05754 0.015 0 0 -0.346714 0.0353429 
75 1 -0.0493142 0.223672 2.21247 0 -0.5 -2.01231 0.015 0 0 -0.346714 0.0353429 
89 1 -0.129145 0.252308 2.21485 0 -0.5 -2.00074 0.015 0 0 -0.346714 0.0353429 
116 1 -0.0789839 0.267273 2.23882 -0 0 -2 0.015 0 0 0 0.0353429 
59 1 -0.0865612 0.379598 2.22009 -0 0 -2 0.015 0 0 0 0.0353429 
92 1 -0.131017 0.472667 2.22566 -0 0 -2 0.015 0 0 0 0.0353429 
8 1 -0.104188 0.182038 2.2527 -0 0 -2 0.025 0 0 0 0.163625 
26 1 -0.116264 0.239868 2.25778 -0 0 -2 0.025 0 0 0 0.163625 
100 1 -0.0681017 0.246701 2.2679 -0 0 -2 0.015 0 0 0 0.0353429 
140 1 -0.125739 0.288791 2.26607 -0 0 -2 0.015 0 0 0 0.0353429 
98 1 -0.147127 0.316597 2.24639 -0 0 -2 0.015 0 0 0 0.0353429 
3 1 -0.141317 0.379238 2.25562 -0 0 -2 0.025 0 0 0 0.163625 
72 1 -0.105673 0.415391 2.26063 -0 0 -2 0.015 0 0 0 0.0353429 
151 1 -0.0686397 0.398737 2.24618 -0 0 -2 0.015 0 0 0 0.0353429 
118 1 -0.0372647 0.447981 2.26982 -0 0 -2 0.015 0 0 0 0.0353429 
40 1 -0.104474 0.465328 2.26649 -0 0 -2 0.025 0 0 0 0.163625 
51 1 -0.148629 0.207973 2.2823 -0 0 -2 0.025 0 0 0 0.163625 
117 1 -0.0596227 0.187911 2.27545 -0 0 -2 0.015 0 0 0 0.0353429 
90 1 -0.146535 0.459152 2.29707 -0 0 -2 0.015 0 0 0 0.0353429 
44 1 -0.125916 0.175687 2.32664 -0 0 -2 0.025 0 0 0 0.163625 
60 1 -0.0770515 0.189563 2.30446 -0 0 -2 0.015 0 0 0 0.0353429 
148 1 -0.109236 0.277779 2.31206 -0 0 -2 0.015 0 0 0 0.0353429 
11 1 -0.104535 0.339633 2.30513 -0 0 -2 0.025 0 0 0 0.163625 
50 1 -0.130982 0.413855 2.30501 -0 0 -2 0.025 0 0 0 0.163625 
74 1 -0.0790012 0.398328 2.31728 -0 0 -2 0.015 0 0 0 0.0353429 
76 1 -0.0202065 0.4251 2.32289 -0 0 -2 0.015 0 0 0 0.0353429 
73 1 -0.0639552 0.194042 2.35792 -0 0 -2 0.015 0 0 0 0.0353429 
36 1 -0.103411 0.220492 2.33428 -0 0 -2 0.025 0 0 0 0.163625 
54 1 -0.127903 0.263915 2.33772 -0 0 -2 0.015 0 0 0 0.0353429 
105 1 -0.0921083 0.265449 2.33386 -0 0 -2 0.015 0 0 0 0.0353429 
114 1 -0.0718896 0.247337 2.34704 -0 0 -2 0.015 0 0 0 0.0353429 
2 1 -0.110349 0.340826 2.35999 -0 0 -2 0.025 0 0 0 0.163625 
29 1 -0.0788351 0.436897 2.33214 -0 0 -2 0.025 0 0 0 0.163625 
113 1 -0.118506 0.466048 2.3556 -0 0 -2 0.015 0 0 0 0.0353429 
146 1 -0.109965 0.179156 2.36605 -0 0 -2 0.015 0 0 0 0.0353429 
99 1 -0.146283 0.240102 2.38068 -0 0 -2 0.015 0 0 0 0.0353429 
57 1 -0.120673 0.292821 2.37596 -0 0 -2 0.015 0 0 0 0.0353429 
88 1 -0.0666498 0.404684 2.37196 -0 0 -2 0.015 0 0 0 0.0353429 
12 1 -0.0363281 0.448716 2.3655 -0 0 -2 0.025 0 0 0 0.163625 
67 1 -0.0183057 0.176509 2.40652 -0 0 -2 0.015 0 0 0 0.0353429 
24 1 -0.138394 0.202357 2.41139 -0 0 -2 0.025 0 0 0 0.163625 
66 1 -0.0281121 0.223413 2.39665 -0 0 -2 0.015 0 0 0 0.0353429 
83 1 -0.108229 0.266466 2.39373 -0 0 -2 0.015 0 0 0 0.0353429 
19 1 -0.0715757 0.246217 2.39514 -0 0 -2 0.025 0 0 0 0.163625 
133 1 -0.127566 0.317989 2.41483 -0 0 -2 0.015 0 0 0 0.0353429 
10 1 -0.0985872 0.348255 2.41069 -0 0 -2 0.025 0 0 0 0.163625 
34 1 -0.138562 0.406366 2.39159 -0 0 -2 0.025 0 0 0 0.163625 
95 1 -0.10482 0.405012 2.4162 -0 0 -2 0.015 0 0 0 0.0353429 
81 1 -0.051385 0.406229 2.39808 -0 0 -2 0.015 0 0 0 0.0353429 
71 1 -0.145263 0.448003 2.3998 -0 0 -2 0.015 0 0 0 0.0353429 
39 1 -0.0696793 0.4547 2.41626 -0 0 -2 0.025 0 0 0 0.163625 
28 1 -0.0685748 0.19761 2.44085 -0 0 -2 0.025 0 0 0 0.163625 
70 1 -0.107191 0.223969 2.43082 -0 0 -2 0.015 0 0 0 0.0353429 
97 1 -0.0338223 0.225584 2.43725 -0 0 -2 0.015 0 0 0 0.0353429 
103 1 -0.135939 0.242982 2.42597 -0 0 -2 0.015 0 0 0 0.0353429 
115 1 -0.076478 0.260831 2.43742 -0 0 -2 0.015 0 0 0 0.0353429 
126 1 -0.11117 0.322121 2.44119 -0 0 -2 0.015 0 0 0 0.0353429 
85 1 -0.13789 0.382175 2.43837 -0 0 -2 0.015 0 0 0 0.0353429 
134 1 -0.137197 0.420922 2.44478 -0 0 -2 0.015 0 0 0 0.0353429 
77 1 -0.0297287 0.448599 2.4476 -0 0 -2 0.015 0 0 0 0.0353429 
120 1 -0.148569 0.468911 2.44842 -0 0 -2 0.015 0 0 0 0.0353429 
143 1 -0.11631 0.460077 2.42943 -0 0 -2 0.015 0 0 0 0.0353429 
96 1 -0.131998 0.220986 2.45539 -0 0 -2 0.015 0 0 0 0.0353429 
38 1 -0.121616 0.260048 2.46357 -0 0 -2 0.025 0 0 0 0.163625 
130 1 -0.0642546 0.250466 2.47891 -0 0 -2 0.015 0 0 0 0.0353429 
23 1 -0.134189 0.392634 2.47855 -0 0 -2 0.025 0 0 0 0.163625 
110 1 -0.0868918 0.176082 2.50435 -0 0 -2 0.015 0 0 0 0.0353429 
31 1 -0.140814 0.189187 2.49377 -0 0 -2 0.025 0 0 0 0.163625 
93 1 -0.0244706 0.186478 2.50973 -0 0 -2 0.015 0 0 0 0.0353429 
150 1 -0.100106 0.224977 2.48793 -0 0 -2 0.015 0 0 0 0.0353429 
136 1 -0.0832352 0.392978 2.51113 -0 0 -2 0.015 0 0 0 0.0353429 
18 1 -0.106015 0.455331 2.48842 -0 0 -2 0.025 0 0 0 0.163625 
4 1 -0.0330873 0.468582 2.48812 -0 0 -2 0.025 0 0 0 0.163625 
108 1 -0.089121 0.201884 2.53078 -0 0 -2 0.015 0 0 0 0.0353429 
69 1 -0.020474 0.219918 2.53967 -0 0 -2 0.015 0 0 0 0.0353429 
17 1 -0.134634 0.299667 2.51245 -0 0 -2 0.025 0 0 0 0.163625 
30 1 -0.0481876 0.420042 2.51427 -0 0 -2 0.025 0 0 0 0.163625 
106 1 -0.102883 0.446824 2.53843 -0 0 -2 0.015 0 0 0 0.0353429 
109 1 -0.0676248 0.46737 2.51384 -0 0 -2 0.015 0 0 0 0.0353429 
102 1 -0.11709 0.195969 2.55474 -0 0 -2 0.015 0 0 0 0.0353429 
14 1 -0.0571303 0.18696 2.55907 -0 0 -2 0.025 0 0 0 0.163625 
141 1 -0.136875 0.266764 2.56501 -0 0 -2 0.015 0 0 0 0.0353429 
139 1 -0.104092 0.253657 2.55467 -0 0 -2 0.015 0 0 0 0.0353429 
144 1 -0.0691235 0.256654 2.5543 -0 0 -2 0.015 0 0 0 0.0353429 
22 1 -0.102489 0.321901 2.55263 -0 0 -2 0.025 0 0 0 0.163625 
35 1 -0.146938 0.392962 2.54232 -0 0 -2 0.025 0 0 0 0.163625 
55 1 -0.0959971 0.425903 2.56097 -0 0 -2 0.015 0 0 0 0.0353429 
21 1 -0.0470047 0.46853 2.57088 -0 0 -2 0.025 0 0 0 0.163625 
107 1 -0.141609 0.176798 2.58762 -0 0 -2 0.015 0 0 0 0.0353429 
112 1 -0.073338 0.257454 2.59831 -0 0 -2 0.015 0 0 0 0.0353429 
94 1 -0.127866 0.29863 2.59384 -0 0 -2 0.015 0 0 0 0.0353429 
84 1 -0.116406 0.338316 2.5969 -0 0 -2 0.015 0 0 0 0.0353429 
87 1 -0.113676 0.385123 2.57687 -0 0 -2 0.015 0 0 0 0.0353429 
147 1 -0.100309 0.450661 2.59409 -0 0 -2 0.015 0 0 0 0.0353429 
1 1 -0.142366 0.459394 2.57437 -0 0 -2 0.025 0 0 0 0.163625 
32 1 -0.149633 0.185622 2.62666 -0 0 -2 0.025 0 0 0 0.163625 
142 1 -0.0724928 0.196693 2.60723 -0 0 -2 0.015 0 0 0 0.0353429 
6 1 -0.109435 0.215083 2.61884 -0 0 -2 0.025 0 0 0 0.163625 
135 1 -0.140472 0.259953 2.62676 -0 0 -2 0.015 0 0 0 0.0353429 
149 1 -0.107316 0.253342 2.6069 -0 0 -2 0.015 0 0 0 0.0353429 
15 1 -0.0916636 0.308509 2.62068 -0 0 -2 0.025 0 0 0 0.163625 
80 1 -0.102893 0.380978 2.61468 -0 0 -2 0.015 0 0 0 0.0353429 
47 1 -0.140465 0.419385 2.60727 -0 0 -2 0.025 0 0 0 0.163625 
145 1 -0.0934491 0.411838 2.60812 -0 0 -2 0.015 0 0 0 0.0353429 
62 1 -0.0849655 0.467496 2.62666 -0 0 -2 0.015 0 0 0 0.0353429 
138 1 -0.0317395 0.192376 2.63476 -0 0 -2 0.015 0 0 0 0.0353429 
129 1 -0.0553418 0.210019 2.65972 -0 0 -2 0.015 0 0 0 0.0353429 
128 1 -0.145291 0.342562 2.63547 -0 0 -2 0.015 0 0 0 0.0353429 
121 1 -0.0679495 0.444838 2.64397 -0 0 -2 0.015 0 0 0 0.0353429 
61 1 -0.0231802 0.176945 2.67097 -0 0 -2 0.015 0 0 0 0.0353429 
52 1 -0.100497 0.1916 2.67456 -0 0 -2 0.015 0 0 0 0.0353429 
79 1 -0.0179342 0.210984 2.671 -0 0 -2 0.015 0 0 0 0.0353429 
5 1 -0.137704 0.218352 2.67925 -0 0 -2 0.025 0 0 0 0.163625 
7 1 -0.0712578 0.257024 2.68071 -0 0 -2 0.025 0 0 0 0.163625 
13 1 -0.146779 0.291061 2.66606 -0 0 -2 0.025 0 0 0 0.163625 
101 1 -0.102489 0.301504 2.66429 -0 0 -2 0.015 0 0 0 0.0353429 
20 1 -0.124339 0.346193 2.6778 -0 0 -2 0.025 0 0 0 0.163625 
91 1 -0.124131 0.396082 2.67121 -0 0 -2 0.015 0 0 0 0.0353429 
37 1 -0.0716655 0.404405 2.66405 -0 0 -2 0.025 0 0 0 0.163625 
46 1 -0.032303 0.465744 2.66631 -0 0 -2 0.025 0 0 0 0.163625 
65 1 -0.147981 0.187337 2.71004 -0 0 -2 0.015 0 0 0 0.0353429 
58 1 -0.0969698 0.285666 2.70391 -0 0 -2 0.015 0 0 0 0.0353429 
86 1 -0.142939 0.382764 2.69619 -0 0 -2 0.015 0 0 0 0.0353429 
124 1 -0.136447 0.411167 2.70385 -0 0 -2 0.015 0 0 0 0.0353429 
9 1 -0.0320364 0.416484 2.69771 -0 0 -2 0.025 0 0 0 0.163625 
131 1 -0.025873 0.449155 2.72254 -0 0 -2 0.015 0 0 0 0.0353429 
41 1 -0.107908 0.465288 2.70889 -0 0 -2 0.025 0 0 0 0.163625 
49 1 -0.0613084 0.18937 2.74436 -0 0 -2 0.025 0 0 0 0.163625 
132 1 -0.0234712 0.214078 2.73538 -0 0 -2 0.015 0 0 0 0.0353429 
48 1 -0.144727 0.271852 2.73501 -0 0 -2 0.025 0 0 0 0.163625 
53 1 -0.106432 0.3161 2.73598 -0 0 -2 0.015 0 0 0 0.0353429 
104 1 -0.138444 0.347252 2.72686 -0 0 -2 0.015 0 0 0 0.0353429 
16 1 -0.129915 0.412384 2.7458 -0 0 -2 0.025 0 0 0 0.163625 
82 1 -0.0851821 0.402207 2.74869 -0 0 -2 0.015 0 0 0 0.0353429 
27 1 -0.0637137 0.439115 2.74609 -0 0 -2 0.025 0 0 0 0.163625 
63 1 -0.147823 0.467223 2.75296 -0 0 -2 0.015 0 0 0 0.0353429 
25 1 -0.104447 0.217985 2.76621 -0 0 -2 0.025 0 0 0 0.163625 
127 1 -0.0304133 0.231126 2.76099 -0 0 -2 0.015 0 0 0 0.0353429 
42 1 -0.132916 0.309326 2.77288 -0 0 -2 0.025 0 0 0 0.163625 
123 1 -0.11925 0.365597 2.77458 -0 0 -2 0.015 0 0 0 0.0353429 
125 1 -0.0960051 0.419402 2.78192 -0 0 -2 0.015 0 0 0 0.0353429 
64 1 -0.145219 0.427667 2.78104 -0 0 -2 0.015 0 0 0 0.0353429 
56 1 -0.11556 0.462639 2.76092 -0 0 -2 0.015 0 0 0 0.0353429 
203 1 0.0667127 0.171233 2.19387 0 -0.5 -2.10109 0.015 0 0 -0.346714 0.0353429 
284 1 0.0765149 0.202696 2.18707 0 -0.5 -2.13258 0.015 0 0 -0.346714 0.0353429 
263 1 0.025742 0.232494 2.20898 0 -0.5 -2.02928 0.015 0 0 -0.346714 0.0353429 
237 1 0.117019 0.232451 2.20125 0 -0.5 -2.06636 0.015 0 0 -0.346714 0.0353429 
259 1 0.149131 0.211826 2.20421 0 -0.5 -2.05224 0.015 0 0 -0.346714 0.0353429 
289 1 0.0921365 0.290854 2.18532 0.0203384 -0.134604 -2.52559 0.015 0 0 -0.346714 0.0353429 
214 1 0.144386 0.357733 2.19776 0 -0.5 -2.08285 0.015 0 0 -0.346714 0.0353429 
171 1 0.0955264 0.373107 2.20395 0 -0.5 -2.05351 0.025 0 0 -1.60516 0.163625 
213 1 0.0350777 0.41057 2.19392 0 -0.5 -2.1008 0.015 0 0 -0.346714 0.0353429 
226 1 0.110692 0.419304 2.20196 0 -0.5 -2.06303 0.015 0 0 -0.346714 0.0353429 
272 1 0.0168276 0.445548 2.192 0 -0.5 -2.10982 0.015 0 0 -0.346714 0.0353429 
241 1 0.0849537 0.441018 2.19961 0 -0.5 -2.07411 0.015 0 0 -0.346714 0.0353429 
220 1 0.0401617 0.20521 2.2176 -0 0 -2 0.015 0 0 0 0.0353429 
206 1 0.0617477 0.223937 2.21045 0.084947 -0.417261 -2.04996 0.015 3.33633 3.19777 -1.43807 0.0353429 
199 1 0.0904416 0.267121 2.21962 -0 0 -2 0.025 0 0 0 0.163625 
177 1 0.123683 0.307579 2.22023 -0 0 -2 0.025 0 0 0 0.163625 
290 1 0.140367 0.353829 2.22985 -0 0 -2 0.015 0 0 0 0.0353429 
166 1 0.0609489 0.469923 2.23634 -0 0 -2 0.025 0 0 0 0.163625 
184 1 0.11251 0.469116 2.23391 -0 0 -2 0.025 0 0 0 0.163625 
222 1 0.123753 0.203346 2.25626 -0 0 -2 0.015 0 0 0 0.0353429 
216 1 0.0815804 0.236084 2.24727 -0 0 -2 0.015 0 0 0 0.0353429 
170 1 0.131887 0.34958 2.27006 -0 0 -2 0.025 0 0 0 0.163625 
249 1 0.0491797 0.404411 2.24305 -0 0 -2 0.015 0 0 0 0.0353429 
270 1 0.0946744 0.395344 2.24831 -0 0 -2 0.015 0 0 0 0.0353429 
294 1 0.128315 0.426257 2.25459 -0 0 -2 0.015 0 0 0 0.0353429 
209 1 0.0969746 0.190163 2.29135 -0 0 -2 0.015 0 0 0 0.0353429 
180 1 0.0442532 0.216579 2.2704 -0 0 -2 0.025 0 0 0 0.163625 
282 1 0.10026 0.326414 2.27807 -0 0 -2 0.015 0 0 0 0.0353429 
253 1 0.123075 0.306604 2.27287 -0 0 -2 0.015 0 0 0 0.0353429 
231 1 0.0350342 0.41973 2.27058 -0 0 -2 0.015 0 0 0 0.0353429 
169 1 0.0892107 0.426518 2.27962 -0 0 -2 0.025 0 0 0 0.163625 
235 1 0.134937 0.184285 2.32741 -0 0 -2 0.015 0 0 0 0.0353429 
168 1 0.0261487 0.219274 2.32234 -0 0 -2 0.025 0 0 0 0.163625 
269 1 0.141487 0.214974 2.32113 -0 0 -2 0.015 0 0 0 0.0353429 
185 1 0.0936576 0.261841 2.33032 -0 0 -2 0.025 0 0 0 0.163625 
217 1 0.133752 0.263751 2.32677 -0 0 -2 0.015 0 0 0 0.0353429 
296 1 0.146983 0.302216 2.30615 -0 0 -2 0.015 0 0 0 0.0353429 
278 1 0.113612 0.32137 2.30539 -0 0 -2 0.015 0 0 0 0.0353429 
182 1 0.114565 0.374239 2.32517 -0 0 -2 0.025 0 0 0 0.163625 
162 1 0.0478022 0.420462 2.31899 -0 0 -2 0.025 0 0 0 0.163625 
257 1 0.139837 0.433996 2.3056 -0 0 -2 0.015 0 0 0 0.0353429 
176 1 0.0399362 0.470522 2.3268 -0 0 -2 0.025 0 0 0 0.163625 
286 1 0.147755 0.46304 2.32633 -0 0 -2 0.015 0 0 0 0.0353429 
153 1 0.0895866 0.175295 2.34087 -0 0 -2 0.025 0 0 0 0.163625 
211 1 0.0694768 0.231402 2.34929 -0 0 -2 0.015 0 0 0 0.0353429 
251 1 0.126174 0.326714 2.34639 -0 0 -2 0.015 0 0 0 0.0353429 
291 1 0.140432 0.400348 2.35571 -0 0 -2 0.015 0 0 0 0.0353429 
159 1 0.087245 0.458888 2.35629 -0 0 -2 0.025 0 0 0 0.163625 
175 1 0.0941494 0.204234 2.38231 -0 0 -2 0.025 0 0 0 0.163625 
204 1 0.134881 0.215418 2.36632 -0 0 -2 0.015 0 0 0 0.0353429 
161 1 0.135356 0.273135 2.36587 -0 0 -2 0.025 0 0 0 0.163625 
230 1 0.118982 0.311717 2.37363 -0 0 -2 0.015 0 0 0 0.0353429 
228 1 0.0279693 0.421998 2.3694 -0 0 -2 0.015 0 0 0 0.0353429 
300 1 0.149285 0.45152 2.3619 -0 0 -2 0.015 0 0 0 0.0353429 
250 1 0.138716 0.448388 2.39022 -0 0 -2 0.015 0 0 0 0.0353429 
202 1 0.126943 0.194204 2.41466 -0 0 -2 0.015 0 0 0 0.0353429 
299 1 0.0153001 0.223001 2.40117 -0 0 -2 0.015 0 0 0 0.0353429 
293 1 0.0548164 0.239515 2.39753 -0 0 -2 0.015 0 0 0 0.0353429 
245 1 0.0868358 0.21853 2.41974 -0 0 -2 0.015 0 0 0 0.0353429 
200 1 0.112803 0.253719 2.40874 -0 0 -2 0.025 0 0 0 0.163625 
192 1 0.134392 0.364514 2.39315 -0 0 -2 0.025 0 0 0 0.163625 
255 1 0.0340792 0.41171 2.41162 -0 0 -2 0.015 0 0 0 0.0353429 
285 1 0.0870748 0.401534 2.39391 -0 0 -2 0.015 0 0 0 0.0353429 
252 1 0.131256 0.420269 2.41163 -0 0 -2 0.015 0 0 0 0.0353429 
275 1 0.0211058 0.446622 2.40036 -0 0 -2 0.015 0 0 0 0.0353429 
256 1 0.0868225 0.433952 2.39142 -0 0 -2 0.015 0 0 0 0.0353429 
246 1 0.0494565 0.4682 2.39425 -0 0 -2 0.015 0 0 0 0.0353429 
240 1 0.0956629 0.4648 2.39533 -0 0 -2 0.015 0 0 0 0.0353429 
287 1 0.130384 0.17682 2.44513 -0 0 -2 0.015 0 0 0 0.0353429 
189 1 0.0509787 0.189477 2.43116 -0 0 -2 0.025 0 0 0 0.163625 
288 1 0.0326968 0.220656 2.45017 -0 0 -2 0.015 0 0 0 0.0353429 
247 1 0.0532922 0.24431 2.42802 -0 0 -2 0.015 0 0 0 0.0353429 
154 1 0.116388 0.333622 2.437 -0 0 -2 0.025 0 0 0 0.163625 
190 1 0.11779 0.446077 2.44162 -0 0 -2 0.025 0 0 0 0.163625 
210 1 0.0872868 0.178716 2.46568 -0 0 -2 0.015 0 0 0 0.0353429 
181 1 0.070397 0.216714 2.46954 -0 0 -2 0.025 0 0 0 0.163625 
165 1 0.148355 0.269976 2.46387 -0 0 -2 0.025 0 0 0 0.163625 
152 1 0.089118 0.280769 2.48052 -0 0 -2 0.025 0 0 0 0.163625 
295 1 0.103955 0.389653 2.4517 -0 0 -2 0.015 0 0 0 0.0353429 
156 1 0.0411221 0.437707 2.45294 -0 0 -2 0.025 0 0 0 0.163625 
233 1 0.0406697 0.190327 2.49087 -0 0 -2 0.015 0 0 0 0.0353429 
260 1 0.0198171 0.221855 2.48407 -0 0 -2 0.015 0 0 0 0.0353429 
279 1 0.11959 0.339787 2.48516 -0 0 -2 0.015 0 0 0 0.0353429 
262 1 0.0888361 0.372678 2.48832 -0 0 -2 0.015 0 0 0 0.0353429 
207 1 0.128901 0.387724 2.49766 -0 0 -2 0.015 0 0 0 0.0353429 
234 1 0.0945525 0.423196 2.48571 -0 0 -2 0.015 0 0 0 0.0353429 
194 1 0.131621 0.447751 2.49616 -0 0 -2 0.025 0 0 0 0.163625 
223 1 0.0343911 0.467936 2.50555 -0 0 -2 0.015 0 0 0 0.0353429 
208 1 0.0680799 0.458746 2.48903 -0 0 -2 0.015 0 0 0 0.0353429 
178 1 0.0370442 0.176531 2.53748 -0 0 -2 0.025 0 0 0 0.163625 
212 1 0.0737637 0.196713 2.5201 -0 0 -2 0.015 0 0 0 0.0353429 
236 1 0.111584 0.210187 2.52011 -0 0 -2 0.015 0 0 0 0.0353429 
224 1 0.132465 0.234727 2.53754 -0 0 -2 0.015 0 0 0 0.0353429 
242 1 0.131055 0.286068 2.53037 -0 0 -2 0.015 0 0 0 0.0353429 
191 1 0.0609008 0.410844 2.52204 -0 0 -2 0.025 0 0 0 0.163625 
258 1 0.135516 0.183364 2.55748 -0 0 -2 0.015 0 0 0 0.0353429 
187 1 0.0681893 0.23526 2.56552 -0 0 -2 0.025 0 0 0 0.163625 
221 1 0.0987988 0.270466 2.54223 -0 0 -2 0.015 0 0 0 0.0353429 
179 1 0.136485 0.334335 2.55333 -0 0 -2 0.025 0 0 0 0.163625 
248 1 0.0851139 0.371469 2.56056 -0 0 -2 0.015 0 0 0 0.0353429 
157 1 0.115469 0.419287 2.5675 -0 0 -2 0.025 0 0 0 0.163625 
264 1 0.0357265 0.464363 2.56167 -0 0 -2 0.015 0 0 0 0.0353429 
277 1 0.0674794 0.455945 2.56845 -0 0 -2 0.015 0 0 0 0.0353429 
205 1 0.0941484 0.176621 2.58385 -0 0 -2 0.015 0 0 0 0.0353429 
276 1 0.0937292 0.21136 2.59747 -0 0 -2 0.015 0 0 0 0.0353429 
227 1 0.137271 0.1866 2.58932 -0 0 -2 0.015 0 0 0 0.0353429 
232 1 0.13999 0.251489 2.57933 -0 0 -2 0.015 0 0 0 0.0353429 
172 1 0.128434 0.362446 2.59847 -0 0 -2 0.025 0 0 0 0.163625 
174 1 0.030822 0.423363 2.57981 -0 0 -2 0.025 0 0 0 0.163625 
201 1 0.0267726 0.186335 2.60343 -0 0 -2 0.025 0 0 0 0.163625 
265 1 0.115746 0.204637 2.62081 -0 0 -2 0.015 0 0 0 0.0353429 
225 1 0.0772421 0.22912 2.61896 -0 0 -2 0.015 0 0 0 0.0353429 
158 1 0.0866624 0.276126 2.60274 -0 0 -2 0.025 0 0 0 0.163625 
271 1 0.0988759 0.311205 2.62576 -0 0 -2 0.015 0 0 0 0.0353429 
254 1 0.137401 0.322401 2.60836 -0 0 -2 0.015 0 0 0 0.0353429 
274 1 0.108637 0.339608 2.6251 -0 0 -2 0.015 0 0 0 0.0353429 
183 1 0.0737852 0.400871 2.62943 -0 0 -2 0.025 0 0 0 0.163625 
283 1 0.102888 0.442022 2.61545 -0 0 -2 0.015 0 0 0 0.0353429 
173 1 0.0548933 0.463589 2.61884 -0 0 -2 0.025 0 0 0 0.163625 
229 1 0.102013 0.176876 2.637 -0 0 -2 0.015 0 0 0 0.0353429 
196 1 0.0520917 0.20732 2.64678 -0 0 -2 0.025 0 0 0 0.163625 
163 1 0.107222 0.236676 2.65243 -0 0 -2 0.025 0 0 0 0.163625 
155 1 0.141768 0.302505 2.65315 -0 0 -2 0.025 0 0 0 0.163625 
268 1 0.140569 0.388665 2.66204 -0 0 -2 0.015 0 0 0 0.0353429 
281 1 0.0312292 0.432852 2.64263 -0 0 -2 0.015 0 0 0 0.0353429 
188 1 0.140755 0.442261 2.64841 -0 0 -2 0.025 0 0 0 0.163625 
267 1 0.101401 0.464343 2.66138 -0 0 -2 0.015 0 0 0 0.0353429 
218 1 0.0164873 0.217058 2.68837 -0 0 -2 0.015 0 0 0 0.0353429 
298 1 0.114914 0.351461 2.68045 -0 0 -2 0.015 0 0 0 0.0353429 
197 1 0.0581936 0.42558 2.68016 -0 0 -2 0.025 0 0 0 0.163625 
280 1 0.0367193 0.456786 2.66377 -0 0 -2 0.015 0 0 0 0.0353429 
273 1 0.0779061 0.461373 2.68184 -0 0 -2 0.015 0 0 0 0.0353429 
160 1 0.118533 0.219824 2.71838 -0 0 -2 0.025 0 0 0 0.163625 
238 1 0.105443 0.363301 2.70841 -0 0 -2 0.015 0 0 0 0.0353429 
195 1 0.147227 0.360394 2.71452 -0 0 -2 0.025 0 0 0 0.163625 
167 1 0.118751 0.462916 2.71272 -0 0 -2 0.025 0 0 0 0.163625 
164 1 0.0527853 0.200711 2.72468 -0 0 -2 0.025 0 0 0 0.163625 
261 1 0.0852607 0.230216 2.7429 -0 0 -2 0.015 0 0 0 0.0353429 
215 1 0.0767991 0.264474 2.72777 -0 0 -2 0.015 0 0 0 0.0353429 
297 1 0.141884 0.27502 2.72554 -0 0 -2 0.015 0 0 0 0.0353429 
243 1 0.113126 0.365244 2.7455 -0 0 -2 0.015 0 0 0 0.0353429 
292 1 0.0287531 0.422464 2.72768 -0 0 -2 0.015 0 0 0 0.0353429 
193 1 0.102412 0.413293 2.74052 -0 0 -2 0.025 0 0 0 0.163625 
198 1 0.0617553 0.466461 2.74062 -0 0 -2 0.025 0 0 0 0.163625 
219 1 0.0278687 0.201322 2.77055 -0 0 -2 0.015 0 0 0 0.0353429 
239 1 0.126558 0.237343 2.76731 -0 0 -2 0.015 0 0 0 0.0353429 
186 1 0.10183 0.291927 2.76008 -0 0 -2 0.025 0 0 0 0.163625 
266 1 0.0917737 0.36017 2.77711 -0 0 -2 0.015 0 0 0 0.0353429 
244 1 0.0497502 0.427977 2.76371 -0 0 -2 0.015 0 0 0 0.0353429 
