ITEM: TIMESTEP
16800
ITEM: NUMBER OF ATOMS
300
ITEM: BOX BOUNDS mm mm mm
-1 1
-1 1
-0.05 2.85
ITEM: ATOMS id type x y z vx vy vz radius fx fy fz mass 
45 1 -0.0943793 0.112238 1.79125 0 -0.5 -3.50912 0.025 0 0 -1.60516 0.163625 
68 1 -0.0997213 0.161271 1.77294 0 -0.5 -3.55994 0.015 0 0 -0.346714 0.0353429 
122 1 -0.0716505 0.172199 1.79135 0.00811842 -0.517403 -3.5075 0.015 0 0 -0.346714 0.0353429 
137 1 -0.0867464 0.204649 1.78178 -0.00924354 -0.479856 -3.53708 0.015 0 0 -0.346714 0.0353429 
33 1 -0.129286 0.352605 1.78734 0 -0.5 -3.52001 0.025 0 0 -1.60516 0.163625 
119 1 -0.0370509 0.101189 1.81003 0 -0.5 -3.45625 0.015 0 0 -0.346714 0.0353429 
75 1 -0.0493142 0.151672 1.82099 0 -0.5 -3.42495 0.015 0 0 -0.346714 0.0353429 
89 1 -0.129145 0.180308 1.82503 0 -0.5 -3.41338 0.015 0 0 -0.346714 0.0353429 
43 1 -0.116198 0.263785 1.80472 0 -0.5 -3.47125 0.025 0 0 -1.60516 0.163625 
78 1 -0.0422369 0.359955 1.81495 0 -0.5 -3.44222 0.015 0 0 -0.346714 0.0353429 
111 1 -0.0487783 0.3961 1.8051 0 -0.5 -3.47018 0.015 0 0 -0.346714 0.0353429 
116 1 -0.0487121 0.218869 1.84848 0.36535 -0.287166 -3.49816 0.015 0 0 -0.346714 0.0353429 
59 1 -0.0865612 0.308868 1.83394 0 -0.5 -3.38767 0.015 0 0 -0.346714 0.0353429 
92 1 -0.131017 0.403327 1.84333 0 -0.5 -3.3604 0.015 0 0 -0.346714 0.0353429 
8 1 -0.104188 0.119463 1.88788 0 -0.5 -3.22767 0.025 0 0 -1.60516 0.163625 
26 1 -0.0972311 0.197745 1.8805 0.14857 -0.341553 -3.32945 0.025 0 0 -1.60516 0.163625 
98 1 -0.147127 0.252442 1.87764 0 -0.5 -3.25867 0.015 0 0 -0.346714 0.0353429 
151 1 -0.0686397 0.334527 1.87729 0 -0.5 -3.25975 0.015 0 0 -0.346714 0.0353429 
100 1 -0.0681017 0.187921 1.91212 0 -0.5 -3.15321 0.015 0 0 -0.346714 0.0353429 
140 1 -0.125739 0.229556 1.90924 0 -0.5 -3.16214 0.015 0 0 -0.346714 0.0353429 
3 1 -0.141317 0.317388 1.89257 0 -0.5 -3.21345 0.025 0 0 -1.60516 0.163625 
72 1 -0.105673 0.354796 1.90059 0 -0.5 -3.18882 0.015 0 0 -0.346714 0.0353429 
118 1 -0.0372647 0.389681 1.91513 0 -0.5 -3.1438 0.015 0 0 -0.346714 0.0353429 
40 1 -0.104474 0.406198 1.9099 0 -0.5 -3.16008 0.025 0 0 -1.60516 0.163625 
117 1 -0.0596227 0.131021 1.92396 0 -0.5 -3.11613 0.015 0 0 -0.346714 0.0353429 
51 1 -0.151542 0.150616 1.93658 -0.0265052 -0.519812 -3.06423 0.025 0 0 -1.60516 0.163625 
60 1 -0.0770515 0.139928 1.96813 0 -0.5 -2.97379 0.015 0 0 -0.346714 0.0353429 
148 1 -0.123877 0.239102 1.96011 -0.171679 -0.397353 -3.16547 0.015 0 0 -0.346714 0.0353429 
11 1 -0.104535 0.290163 1.96912 0 -0.5 -2.97055 0.025 0 0 -1.60516 0.163625 
50 1 -0.130982 0.364355 1.96894 0 -0.5 -2.97114 0.025 0 0 -1.60516 0.163625 
90 1 -0.146535 0.407667 1.95707 0 -0.5 -3.01009 0.015 0 0 -0.346714 0.0353429 
44 1 -0.125916 0.131597 2.00051 0 -0.5 -2.865 0.025 0 0 -1.60516 0.163625 
36 1 -0.103411 0.178312 2.01138 0 -0.5 -2.82752 0.025 0 0 -1.60516 0.163625 
105 1 -0.11292 0.248887 1.99402 -0.215094 -0.173726 -3.03667 0.015 0 0 -0.346714 0.0353429 
74 1 -0.0790012 0.351893 1.98698 0 -0.5 -2.91101 0.015 0 0 -0.346714 0.0353429 
76 1 -0.0202065 0.38007 1.99511 0 -0.5 -2.88344 0.015 0 0 -0.346714 0.0353429 
29 1 -0.0788351 0.394182 2.00835 0 -0.5 -2.83802 0.025 0 0 -1.60516 0.163625 
73 1 -0.0639552 0.157767 2.04411 0 -0.5 -2.71167 0.015 0 0 -0.346714 0.0353429 
114 1 -0.0719208 0.208368 2.02919 -0.00040144 -0.499666 -2.76531 0.015 0 0 -0.346714 0.0353429 
54 1 -0.132862 0.221052 2.018 -0.0956439 -0.529683 -2.77622 0.015 0 0 -0.346714 0.0353429 
113 1 -0.118506 0.429198 2.04097 0 -0.5 -2.72295 0.015 0 0 -0.346714 0.0353429 
146 1 -0.109965 0.144916 2.05505 0 -0.5 -2.67174 0.015 0 0 -0.346714 0.0353429 
99 1 -0.146283 0.209517 2.07432 0 -0.5 -2.60003 0.015 0 0 -0.346714 0.0353429 
57 1 -0.120673 0.261061 2.06818 0 -0.5 -2.62308 0.015 0 0 -0.346714 0.0353429 
2 1 -0.110349 0.305071 2.04691 0 -0.5 -2.70146 0.025 0 0 -1.60516 0.163625 
88 1 -0.0666498 0.371919 2.0629 0 -0.5 -2.6428 0.015 0 0 -0.346714 0.0353429 
12 1 -0.0363281 0.414336 2.05431 0 -0.5 -2.67449 0.025 0 0 -1.60516 0.163625 
67 1 -0.0183057 0.152389 2.10711 0 -0.5 -2.47319 0.015 0 0 -0.346714 0.0353429 
66 1 -0.0281121 0.196823 2.09478 0 -0.5 -2.52165 0.015 0 0 -0.346714 0.0353429 
19 1 -0.0715757 0.219252 2.09288 0 -0.5 -2.529 0.025 0 0 -1.60516 0.163625 
83 1 -0.108229 0.239146 2.09109 0 -0.5 -2.53597 0.015 0 0 -0.346714 0.0353429 
10 1 -0.0959101 0.329781 2.10574 0.0800593 -0.36273 -2.64691 0.025 0 0 -1.60516 0.163625 
34 1 -0.138562 0.378511 2.08837 0 -0.5 -2.54647 0.025 0 0 -1.60516 0.163625 
81 1 -0.051385 0.379999 2.09659 0 -0.5 -2.51458 0.015 0 0 -0.346714 0.0353429 
71 1 -0.145263 0.422198 2.09874 0 -0.5 -2.50625 0.015 0 0 -0.346714 0.0353429 
24 1 -0.138394 0.179452 2.1131 0 -0.5 -2.44935 0.025 0 0 -1.60516 0.163625 
70 1 -0.107191 0.205924 2.13644 0 -0.5 -2.35399 0.015 0 0 -0.346714 0.0353429 
103 1 -0.135939 0.223722 2.13069 0 -0.5 -2.37783 0.015 0 0 -0.346714 0.0353429 
133 1 -0.127566 0.295944 2.1173 0 -0.5 -2.43247 0.015 0 0 -0.346714 0.0353429 
95 1 -0.10482 0.383312 2.11897 0 -0.5 -2.4257 0.015 0 0 -0.346714 0.0353429 
143 1 -0.11631 0.441682 2.13479 0 -0.5 -2.36086 0.015 0 0 -0.346714 0.0353429 
39 1 -0.0696793 0.43301 2.11903 0 -0.5 -2.42551 0.025 0 0 -1.60516 0.163625 
28 1 -0.0685748 0.18207 2.14812 0 -0.5 -2.30485 0.025 0 0 -1.60516 0.163625 
96 1 -0.131998 0.209081 2.16461 0 -0.5 -2.23353 0.015 0 0 -0.346714 0.0353429 
97 1 -0.0338223 0.209144 2.14395 0 -0.5 -2.3225 0.015 0 0 -0.346714 0.0353429 
115 1 -0.076478 0.244431 2.14414 0 -0.5 -2.32172 0.015 0 0 -0.346714 0.0353429 
126 1 -0.112052 0.305462 2.15042 -0.0288748 -0.539424 -2.24035 0.015 0 0 -0.346714 0.0353429 
85 1 -0.13789 0.366015 2.14525 0 -0.5 -2.31701 0.015 0 0 -0.346714 0.0353429 
134 1 -0.137197 0.406367 2.15263 0 -0.5 -2.28552 0.015 0 0 -0.346714 0.0353429 
77 1 -0.0297287 0.434749 2.15584 0 -0.5 -2.27169 0.015 0 0 -0.346714 0.0353429 
120 1 -0.148569 0.455261 2.15676 0 -0.5 -2.26776 0.015 0 0 -0.346714 0.0353429 
150 1 -0.100106 0.221207 2.19965 0 -0.5 -2.07392 0.015 0 0 -0.346714 0.0353429 
38 1 -0.121616 0.250188 2.17367 0 -0.5 -2.1934 0.025 0 0 -1.60516 0.163625 
130 1 -0.0642546 0.244441 2.1902 0 -0.5 -2.11816 0.015 0 0 -0.346714 0.0353429 
23 1 -0.134189 0.386519 2.18982 0 -0.5 -2.11993 0.025 0 0 -1.60516 0.163625 
18 1 -0.106015 0.451686 2.20016 0 -0.5 -2.07147 0.025 0 0 -1.60516 0.163625 
4 1 -0.0330873 0.464857 2.19985 0 -0.5 -2.07304 0.025 0 0 -1.60516 0.163625 
110 1 -0.0868918 0.176082 2.21635 -0 0 -2 0.015 0 0 0 0.0353429 
31 1 -0.140814 0.186877 2.20567 0 -0.5 -2.04527 0.025 0 0 -1.60516 0.163625 
93 1 -0.0244706 0.186478 2.22173 -0 0 -2 0.015 0 0 0 0.0353429 
17 1 -0.134634 0.299667 2.22445 -0 0 -2 0.025 0 0 0 0.163625 
136 1 -0.0832352 0.392978 2.22313 -0 0 -2 0.015 0 0 0 0.0353429 
30 1 -0.0481876 0.420042 2.22627 -0 0 -2 0.025 0 0 0 0.163625 
109 1 -0.0676248 0.46737 2.22584 -0 0 -2 0.015 0 0 0 0.0353429 
108 1 -0.089121 0.201884 2.24278 -0 0 -2 0.015 0 0 0 0.0353429 
69 1 -0.020474 0.219918 2.25167 -0 0 -2 0.015 0 0 0 0.0353429 
35 1 -0.146938 0.392962 2.25432 -0 0 -2 0.025 0 0 0 0.163625 
106 1 -0.102883 0.446824 2.25043 -0 0 -2 0.015 0 0 0 0.0353429 
102 1 -0.11709 0.195969 2.26674 -0 0 -2 0.015 0 0 0 0.0353429 
14 1 -0.0571303 0.18696 2.27107 -0 0 -2 0.025 0 0 0 0.163625 
141 1 -0.136875 0.266764 2.27701 -0 0 -2 0.015 0 0 0 0.0353429 
139 1 -0.104092 0.253657 2.26667 -0 0 -2 0.015 0 0 0 0.0353429 
144 1 -0.0691235 0.256654 2.2663 -0 0 -2 0.015 0 0 0 0.0353429 
22 1 -0.102489 0.321901 2.26463 -0 0 -2 0.025 0 0 0 0.163625 
87 1 -0.113676 0.385123 2.28887 -0 0 -2 0.015 0 0 0 0.0353429 
55 1 -0.0959971 0.425903 2.27297 -0 0 -2 0.015 0 0 0 0.0353429 
1 1 -0.142366 0.459394 2.28637 -0 0 -2 0.025 0 0 0 0.163625 
21 1 -0.0470047 0.46853 2.28288 -0 0 -2 0.025 0 0 0 0.163625 
107 1 -0.141609 0.176798 2.29962 -0 0 -2 0.015 0 0 0 0.0353429 
142 1 -0.0724928 0.196693 2.31923 -0 0 -2 0.015 0 0 0 0.0353429 
149 1 -0.107316 0.253342 2.3189 -0 0 -2 0.015 0 0 0 0.0353429 
112 1 -0.073338 0.257454 2.31031 -0 0 -2 0.015 0 0 0 0.0353429 
94 1 -0.127866 0.29863 2.30584 -0 0 -2 0.015 0 0 0 0.0353429 
84 1 -0.116406 0.338316 2.3089 -0 0 -2 0.015 0 0 0 0.0353429 
47 1 -0.140465 0.419385 2.31927 -0 0 -2 0.025 0 0 0 0.163625 
145 1 -0.0934491 0.411838 2.32012 -0 0 -2 0.015 0 0 0 0.0353429 
147 1 -0.100309 0.450661 2.30609 -0 0 -2 0.015 0 0 0 0.0353429 
32 1 -0.149633 0.185622 2.33866 -0 0 -2 0.025 0 0 0 0.163625 
138 1 -0.0317395 0.192376 2.34676 -0 0 -2 0.015 0 0 0 0.0353429 
6 1 -0.109435 0.215083 2.33084 -0 0 -2 0.025 0 0 0 0.163625 
135 1 -0.140472 0.259953 2.33876 -0 0 -2 0.015 0 0 0 0.0353429 
15 1 -0.0916636 0.308509 2.33268 -0 0 -2 0.025 0 0 0 0.163625 
128 1 -0.145291 0.342562 2.34747 -0 0 -2 0.015 0 0 0 0.0353429 
80 1 -0.102893 0.380978 2.32668 -0 0 -2 0.015 0 0 0 0.0353429 
62 1 -0.0849655 0.467496 2.33866 -0 0 -2 0.015 0 0 0 0.0353429 
61 1 -0.0231802 0.176945 2.38297 -0 0 -2 0.015 0 0 0 0.0353429 
129 1 -0.0553418 0.210019 2.37172 -0 0 -2 0.015 0 0 0 0.0353429 
79 1 -0.0179342 0.210984 2.383 -0 0 -2 0.015 0 0 0 0.0353429 
13 1 -0.146779 0.291061 2.37806 -0 0 -2 0.025 0 0 0 0.163625 
101 1 -0.102489 0.301504 2.37629 -0 0 -2 0.015 0 0 0 0.0353429 
37 1 -0.0716655 0.404405 2.37605 -0 0 -2 0.025 0 0 0 0.163625 
121 1 -0.0679495 0.444838 2.35597 -0 0 -2 0.015 0 0 0 0.0353429 
46 1 -0.032303 0.465744 2.37831 -0 0 -2 0.025 0 0 0 0.163625 
52 1 -0.100497 0.1916 2.38656 -0 0 -2 0.015 0 0 0 0.0353429 
5 1 -0.137704 0.218352 2.39125 -0 0 -2 0.025 0 0 0 0.163625 
7 1 -0.0712578 0.257024 2.39271 -0 0 -2 0.025 0 0 0 0.163625 
20 1 -0.124339 0.346193 2.3898 -0 0 -2 0.025 0 0 0 0.163625 
86 1 -0.142939 0.382764 2.40819 -0 0 -2 0.015 0 0 0 0.0353429 
91 1 -0.124131 0.396082 2.38321 -0 0 -2 0.015 0 0 0 0.0353429 
9 1 -0.0320364 0.416484 2.40971 -0 0 -2 0.025 0 0 0 0.163625 
65 1 -0.147981 0.187337 2.42204 -0 0 -2 0.015 0 0 0 0.0353429 
58 1 -0.0969698 0.285666 2.41591 -0 0 -2 0.015 0 0 0 0.0353429 
104 1 -0.138444 0.347252 2.43886 -0 0 -2 0.015 0 0 0 0.0353429 
124 1 -0.136447 0.411167 2.41585 -0 0 -2 0.015 0 0 0 0.0353429 
131 1 -0.025873 0.449155 2.43454 -0 0 -2 0.015 0 0 0 0.0353429 
41 1 -0.107908 0.465288 2.42089 -0 0 -2 0.025 0 0 0 0.163625 
49 1 -0.0613084 0.18937 2.45636 -0 0 -2 0.025 0 0 0 0.163625 
127 1 -0.0304133 0.231126 2.47299 -0 0 -2 0.015 0 0 0 0.0353429 
132 1 -0.0234712 0.214078 2.44738 -0 0 -2 0.015 0 0 0 0.0353429 
48 1 -0.144727 0.271852 2.44701 -0 0 -2 0.025 0 0 0 0.163625 
53 1 -0.106432 0.3161 2.44798 -0 0 -2 0.015 0 0 0 0.0353429 
16 1 -0.129915 0.412384 2.4578 -0 0 -2 0.025 0 0 0 0.163625 
82 1 -0.0851821 0.402207 2.46069 -0 0 -2 0.015 0 0 0 0.0353429 
27 1 -0.0637137 0.439115 2.45809 -0 0 -2 0.025 0 0 0 0.163625 
63 1 -0.147823 0.467223 2.46496 -0 0 -2 0.015 0 0 0 0.0353429 
56 1 -0.11556 0.462639 2.47292 -0 0 -2 0.015 0 0 0 0.0353429 
25 1 -0.104447 0.217985 2.47821 -0 0 -2 0.025 0 0 0 0.163625 
42 1 -0.132916 0.309326 2.48488 -0 0 -2 0.025 0 0 0 0.163625 
123 1 -0.11925 0.365597 2.48658 -0 0 -2 0.015 0 0 0 0.0353429 
125 1 -0.0960051 0.419402 2.49392 -0 0 -2 0.015 0 0 0 0.0353429 
64 1 -0.145219 0.427667 2.49304 -0 0 -2 0.015 0 0 0 0.0353429 
289 1 0.0950652 0.271471 1.71993 0.0203384 -0.134604 -3.93823 0.015 0 0 -0.346714 0.0353429 
203 1 0.0667127 0.0992328 1.78961 0 -0.5 -3.51373 0.015 0 0 -0.346714 0.0353429 
284 1 0.0759434 0.128605 1.77665 -0.0310215 -0.613333 -3.63295 0.015 0 0 -0.346714 0.0353429 
206 1 0.0865104 0.151899 1.79628 0.129533 -0.558046 -3.54082 0.015 0 0 -0.346714 0.0353429 
214 1 0.144386 0.285733 1.79612 0 -0.5 -3.49549 0.015 0 0 -0.346714 0.0353429 
213 1 0.0350777 0.33857 1.7897 0 -0.5 -3.51344 0.015 0 0 -0.346714 0.0353429 
272 1 0.0168276 0.373548 1.78648 0 -0.5 -3.52246 0.015 0 0 -0.346714 0.0353429 
259 1 0.149131 0.139826 1.80698 0 -0.5 -3.46488 0.015 0 0 -0.346714 0.0353429 
263 1 0.025742 0.160494 1.81505 0 -0.5 -3.44192 0.015 0 0 -0.346714 0.0353429 
237 1 0.117019 0.160451 1.80198 0 -0.5 -3.479 0.015 0 0 -0.346714 0.0353429 
199 1 0.0904173 0.218255 1.80399 -0.00278668 -0.321029 -3.60989 0.025 0 0 -1.60516 0.163625 
171 1 0.0955264 0.301107 1.80653 0 -0.5 -3.46615 0.025 0 0 -1.60516 0.163625 
226 1 0.110692 0.347304 1.80317 0 -0.5 -3.47567 0.015 0 0 -0.346714 0.0353429 
241 1 0.0849537 0.369018 1.79923 0 -0.5 -3.48675 0.015 0 0 -0.346714 0.0353429 
220 1 0.0306362 0.126124 1.83259 -0.0669262 -0.554313 -3.37971 0.015 0 0 -0.346714 0.0353429 
177 1 0.137311 0.252149 1.8346 0.112606 -0.398162 -3.39472 0.025 0 0 -1.60516 0.163625 
290 1 0.141663 0.291457 1.85246 0.0439512 -0.299137 -3.26836 0.015 0 0 -0.346714 0.0353429 
184 1 0.11251 0.401841 1.85712 0 -0.5 -3.31989 0.025 0 0 -1.60516 0.163625 
249 1 0.0491797 0.339421 1.87218 0 -0.5 -3.27505 0.015 0 0 -0.346714 0.0353429 
270 1 0.0946744 0.331669 1.88077 0 -0.5 -3.24925 0.015 0 0 -0.346714 0.0353429 
294 1 0.128315 0.364152 1.89092 0 -0.5 -3.21845 0.015 0 0 -0.346714 0.0353429 
166 1 0.0609489 0.403253 1.86114 0 -0.5 -3.30802 0.025 0 0 -1.60516 0.163625 
222 1 0.123753 0.141661 1.89361 0 -0.5 -3.21021 0.015 0 0 -0.346714 0.0353429 
180 1 0.0429437 0.158157 1.91685 -0.021889 -0.504465 -3.1275 0.025 0 0 -1.60516 0.163625 
216 1 0.080864 0.156651 1.89377 0.0481324 -0.610657 -3.17209 0.015 0 0 -0.346714 0.0353429 
253 1 0.123075 0.249069 1.91993 0 -0.5 -3.12879 0.015 0 0 -0.346714 0.0353429 
170 1 0.15017 0.304691 1.91109 0.161731 -0.381986 -3.18179 0.025 0 0 -1.60516 0.163625 
231 1 0.0350342 0.36162 1.91633 0 -0.5 -3.14007 0.015 0 0 -0.346714 0.0353429 
209 1 0.0969746 0.137248 1.94842 0 -0.5 -3.03814 0.015 0 0 -0.346714 0.0353429 
282 1 0.0710859 0.250807 1.93465 -0.2609 -0.673185 -3.04405 0.015 0 0 -0.346714 0.0353429 
169 1 0.0892107 0.370668 1.93042 0 -0.5 -3.09573 0.025 0 0 -1.60516 0.163625 
296 1 0.146983 0.253001 1.97063 0 -0.5 -2.96555 0.015 0 0 -0.346714 0.0353429 
278 1 0.113612 0.271965 1.96951 0 -0.5 -2.96928 0.015 0 0 -0.346714 0.0353429 
257 1 0.139837 0.384641 1.96981 0 -0.5 -2.9683 0.015 0 0 -0.346714 0.0353429 
235 1 0.134937 0.140385 2.0016 0 -0.5 -2.86127 0.015 0 0 -0.346714 0.0353429 
168 1 0.0261487 0.174104 1.99431 0 -0.5 -2.88619 0.025 0 0 -1.60516 0.163625 
269 1 0.141487 0.169504 1.99257 0 -0.5 -2.89207 0.015 0 0 -0.346714 0.0353429 
185 1 0.0936576 0.218666 2.00575 0 -0.5 -2.84704 0.025 0 0 -1.60516 0.163625 
217 1 0.133752 0.219691 2.00069 0 -0.5 -2.86441 0.015 0 0 -0.346714 0.0353429 
182 1 0.114565 0.329779 1.9984 0 -0.5 -2.87226 0.025 0 0 -1.60516 0.163625 
162 1 0.0478022 0.374457 1.98947 0 -0.5 -2.90257 0.025 0 0 -1.60516 0.163625 
286 1 0.147755 0.41887 2.00006 0 -0.5 -2.86657 0.015 0 0 -0.346714 0.0353429 
176 1 0.0399362 0.426472 2.00074 0 -0.5 -2.86421 0.025 0 0 -1.60516 0.163625 
153 1 0.0895866 0.13476 2.02063 0 -0.5 -2.79525 0.025 0 0 -1.60516 0.163625 
211 1 0.0694768 0.192972 2.03232 0 -0.5 -2.75395 0.015 0 0 -0.346714 0.0353429 
251 1 0.126174 0.287559 2.02831 0 -0.5 -2.76817 0.015 0 0 -0.346714 0.0353429 
291 1 0.140432 0.363523 2.0411 0 -0.5 -2.72246 0.015 0 0 -0.346714 0.0353429 
159 1 0.087245 0.422208 2.0419 0 -0.5 -2.71961 0.025 0 0 -1.60516 0.163625 
175 1 0.0941494 0.174059 2.07645 0 -0.5 -2.59198 0.025 0 0 -1.60516 0.163625 
204 1 0.134881 0.181248 2.05542 0 -0.5 -2.67037 0.015 0 0 -0.346714 0.0353429 
161 1 0.135356 0.23885 2.05482 0 -0.5 -2.67262 0.025 0 0 -1.60516 0.163625 
230 1 0.118982 0.279372 2.06511 0 -0.5 -2.63456 0.015 0 0 -0.346714 0.0353429 
228 1 0.0279693 0.388593 2.05951 0 -0.5 -2.65536 0.015 0 0 -0.346714 0.0353429 
300 1 0.149285 0.41624 2.04948 0 -0.5 -2.69214 0.015 0 0 -0.346714 0.0353429 
299 1 0.0153001 0.197541 2.10045 0 -0.5 -2.49948 0.015 0 0 -0.346714 0.0353429 
293 1 0.0548164 0.213145 2.09589 0 -0.5 -2.51733 0.015 0 0 -0.346714 0.0353429 
192 1 0.134392 0.337049 2.09036 0 -0.5 -2.53881 0.025 0 0 -1.60516 0.163625 
285 1 0.0870748 0.374259 2.09132 0 -0.5 -2.53509 0.015 0 0 -0.346714 0.0353429 
256 1 0.0868225 0.406057 2.08816 0 -0.5 -2.54725 0.015 0 0 -0.346714 0.0353429 
250 1 0.138716 0.420193 2.08663 0 -0.5 -2.55314 0.015 0 0 -0.346714 0.0353429 
275 1 0.0211058 0.420962 2.09944 0 -0.5 -2.5034 0.015 0 0 -0.346714 0.0353429 
246 1 0.0494565 0.44101 2.09175 0 -0.5 -2.53342 0.015 0 0 -0.346714 0.0353429 
240 1 0.0956629 0.43788 2.09311 0 -0.5 -2.52812 0.015 0 0 -0.346714 0.0353429 
189 1 0.0509787 0.171512 2.13683 0 -0.5 -2.35242 0.025 0 0 -1.60516 0.163625 
202 1 0.126943 0.172119 2.1171 0 -0.5 -2.43326 0.015 0 0 -0.346714 0.0353429 
245 1 0.0868358 0.197715 2.12324 0 -0.5 -2.40834 0.015 0 0 -0.346714 0.0353429 
247 1 0.0532922 0.225565 2.13313 0 -0.5 -2.36773 0.015 0 0 -0.346714 0.0353429 
200 1 0.112803 0.230149 2.10984 0 -0.5 -2.46239 0.025 0 0 -1.60516 0.163625 
255 1 0.0340792 0.388865 2.11338 0 -0.5 -2.44817 0.015 0 0 -0.346714 0.0353429 
252 1 0.131256 0.397424 2.11339 0 -0.5 -2.44817 0.015 0 0 -0.346714 0.0353429 
287 1 0.130384 0.16235 2.15302 0 -0.5 -2.28385 0.015 0 0 -0.346714 0.0353429 
288 1 0.0326968 0.207446 2.15875 0 -0.5 -2.25913 0.015 0 0 -0.346714 0.0353429 
154 1 0.116388 0.317122 2.14366 0 -0.5 -2.32368 0.025 0 0 -1.60516 0.163625 
295 1 0.103955 0.376828 2.16047 0 -0.5 -2.25158 0.015 0 0 -0.346714 0.0353429 
156 1 0.0411221 0.425187 2.16186 0 -0.5 -2.24559 0.025 0 0 -1.60516 0.163625 
190 1 0.11779 0.430732 2.14901 0 -0.5 -2.30102 0.025 0 0 -1.60516 0.163625 
210 1 0.0872868 0.169386 2.17598 0 -0.5 -2.18301 0.015 0 0 -0.346714 0.0353429 
181 1 0.070397 0.208344 2.18016 0 -0.5 -2.16417 0.025 0 0 -1.60516 0.163625 
260 1 0.0198171 0.21712 2.19563 0 -0.5 -2.09285 0.015 0 0 -0.346714 0.0353429 
165 1 0.148355 0.260191 2.174 0 -0.5 -2.19193 0.025 0 0 -1.60516 0.163625 
152 1 0.089118 0.275144 2.1919 0 -0.5 -2.11031 0.025 0 0 -1.60516 0.163625 
279 1 0.11959 0.335322 2.19677 0 -0.5 -2.08755 0.015 0 0 -0.346714 0.0353429 
262 1 0.0888361 0.369008 2.20006 0 -0.5 -2.07196 0.015 0 0 -0.346714 0.0353429 
234 1 0.0945525 0.418871 2.19734 0 -0.5 -2.08481 0.015 0 0 -0.346714 0.0353429 
208 1 0.0680799 0.455251 2.20079 0 -0.5 -2.06852 0.015 0 0 -0.346714 0.0353429 
233 1 0.0406697 0.187292 2.20269 0 -0.5 -2.0595 0.015 0 0 -0.346714 0.0353429 
212 1 0.0737637 0.196713 2.2321 -0 0 -2 0.015 0 0 0 0.0353429 
236 1 0.111584 0.210187 2.23211 -0 0 -2 0.015 0 0 0 0.0353429 
207 1 0.128901 0.386384 2.20962 0 -0.5 -2.02624 0.015 0 0 -0.346714 0.0353429 
194 1 0.131621 0.446036 2.2081 0 -0.5 -2.0336 0.025 0 0 -1.60516 0.163625 
223 1 0.0343911 0.467936 2.21755 -0 0 -2 0.015 0 0 0 0.0353429 
178 1 0.0370442 0.176531 2.24948 -0 0 -2 0.025 0 0 0 0.163625 
224 1 0.132465 0.234727 2.24954 -0 0 -2 0.015 0 0 0 0.0353429 
221 1 0.0987988 0.270466 2.25423 -0 0 -2 0.015 0 0 0 0.0353429 
242 1 0.131055 0.286068 2.24237 -0 0 -2 0.015 0 0 0 0.0353429 
191 1 0.0609008 0.410844 2.23404 -0 0 -2 0.025 0 0 0 0.163625 
258 1 0.135516 0.183364 2.26948 -0 0 -2 0.015 0 0 0 0.0353429 
187 1 0.0681893 0.23526 2.27752 -0 0 -2 0.025 0 0 0 0.163625 
232 1 0.13999 0.251489 2.29133 -0 0 -2 0.015 0 0 0 0.0353429 
179 1 0.136485 0.334335 2.26533 -0 0 -2 0.025 0 0 0 0.163625 
248 1 0.0851139 0.371469 2.27256 -0 0 -2 0.015 0 0 0 0.0353429 
174 1 0.030822 0.423363 2.29181 -0 0 -2 0.025 0 0 0 0.163625 
157 1 0.115469 0.419287 2.2795 -0 0 -2 0.025 0 0 0 0.163625 
264 1 0.0357265 0.464363 2.27367 -0 0 -2 0.015 0 0 0 0.0353429 
277 1 0.0674794 0.455945 2.28045 -0 0 -2 0.015 0 0 0 0.0353429 
205 1 0.0941484 0.176621 2.29585 -0 0 -2 0.015 0 0 0 0.0353429 
201 1 0.0267726 0.186335 2.31543 -0 0 -2 0.025 0 0 0 0.163625 
276 1 0.0937292 0.21136 2.30947 -0 0 -2 0.015 0 0 0 0.0353429 
227 1 0.137271 0.1866 2.30132 -0 0 -2 0.015 0 0 0 0.0353429 
158 1 0.0866624 0.276126 2.31474 -0 0 -2 0.025 0 0 0 0.163625 
254 1 0.137401 0.322401 2.32036 -0 0 -2 0.015 0 0 0 0.0353429 
172 1 0.128434 0.362446 2.31047 -0 0 -2 0.025 0 0 0 0.163625 
229 1 0.102013 0.176876 2.349 -0 0 -2 0.015 0 0 0 0.0353429 
265 1 0.115746 0.204637 2.33281 -0 0 -2 0.015 0 0 0 0.0353429 
225 1 0.0772421 0.22912 2.33096 -0 0 -2 0.015 0 0 0 0.0353429 
271 1 0.0988759 0.311205 2.33776 -0 0 -2 0.015 0 0 0 0.0353429 
274 1 0.108637 0.339608 2.3371 -0 0 -2 0.015 0 0 0 0.0353429 
183 1 0.0737852 0.400871 2.34143 -0 0 -2 0.025 0 0 0 0.163625 
283 1 0.102888 0.442022 2.32745 -0 0 -2 0.015 0 0 0 0.0353429 
173 1 0.0548933 0.463589 2.33084 -0 0 -2 0.025 0 0 0 0.163625 
196 1 0.0520917 0.20732 2.35878 -0 0 -2 0.025 0 0 0 0.163625 
163 1 0.107222 0.236676 2.36443 -0 0 -2 0.025 0 0 0 0.163625 
155 1 0.141768 0.302505 2.36515 -0 0 -2 0.025 0 0 0 0.163625 
268 1 0.140569 0.388665 2.37404 -0 0 -2 0.015 0 0 0 0.0353429 
281 1 0.0312292 0.432852 2.35463 -0 0 -2 0.015 0 0 0 0.0353429 
188 1 0.140755 0.442261 2.36041 -0 0 -2 0.025 0 0 0 0.163625 
280 1 0.0367193 0.456786 2.37577 -0 0 -2 0.015 0 0 0 0.0353429 
267 1 0.101401 0.464343 2.37338 -0 0 -2 0.015 0 0 0 0.0353429 
218 1 0.0164873 0.217058 2.40037 -0 0 -2 0.015 0 0 0 0.0353429 
298 1 0.114914 0.351461 2.39245 -0 0 -2 0.015 0 0 0 0.0353429 
197 1 0.0581936 0.42558 2.39216 -0 0 -2 0.025 0 0 0 0.163625 
273 1 0.0779061 0.461373 2.39384 -0 0 -2 0.015 0 0 0 0.0353429 
164 1 0.0527853 0.200711 2.43668 -0 0 -2 0.025 0 0 0 0.163625 
160 1 0.118533 0.219824 2.43038 -0 0 -2 0.025 0 0 0 0.163625 
215 1 0.0767991 0.264474 2.43977 -0 0 -2 0.015 0 0 0 0.0353429 
297 1 0.141884 0.27502 2.43754 -0 0 -2 0.015 0 0 0 0.0353429 
238 1 0.105443 0.363301 2.42041 -0 0 -2 0.015 0 0 0 0.0353429 
195 1 0.147227 0.360394 2.42652 -0 0 -2 0.025 0 0 0 0.163625 
292 1 0.0287531 0.422464 2.43968 -0 0 -2 0.015 0 0 0 0.0353429 
167 1 0.118751 0.462916 2.42472 -0 0 -2 0.025 0 0 0 0.163625 
261 1 0.0852607 0.230216 2.4549 -0 0 -2 0.015 0 0 0 0.0353429 
186 1 0.10183 0.291927 2.47208 -0 0 -2 0.025 0 0 0 0.163625 
243 1 0.113126 0.365244 2.4575 -0 0 -2 0.015 0 0 0 0.0353429 
193 1 0.102412 0.413293 2.45252 -0 0 -2 0.025 0 0 0 0.163625 
198 1 0.0617553 0.466461 2.45262 -0 0 -2 0.025 0 0 0 0.163625 
219 1 0.0278687 0.201322 2.48255 -0 0 -2 0.015 0 0 0 0.0353429 
239 1 0.126558 0.237343 2.47931 -0 0 -2 0.015 0 0 0 0.0353429 
266 1 0.0917737 0.36017 2.48911 -0 0 -2 0.015 0 0 0 0.0353429 
244 1 0.0497502 0.427977 2.47571 -0 0 -2 0.015 0 0 0 0.0353429 
