ITEM: TIMESTEP
60800
ITEM: NUMBER OF ATOMS
900
ITEM: BOX BOUNDS mm mm mm
-1 1
-1 1
-0.962542 2.85
ITEM: ATOMS id type x y z vx vy vz radius fx fy fz mass 
68 1 -0.0997213 -0.0587286 -0.743038 0 -0.5 -7.87634 0.015 0 0 -0.346714 0.0353429 
137 1 -0.0908135 -0.00648818 -0.724149 -0.00924354 -0.479856 -7.85348 0.015 0 0 -0.346714 0.0353429 
45 1 -0.0943793 -0.107762 -0.702375 0 -0.5 -7.82552 0.025 0 0 -1.60516 0.163625 
122 1 -0.0680784 -0.0554586 -0.701553 0.00811842 -0.517403 -7.8239 0.015 0 0 -0.346714 0.0353429 
33 1 -0.129286 0.132605 -0.711069 0 -0.5 -7.83641 0.025 0 0 -1.60516 0.163625 
119 1 -0.0370509 -0.118811 -0.660325 0 -0.5 -7.77265 0.015 0 0 -0.346714 0.0353429 
43 1 -0.116198 0.0437854 -0.672238 0 -0.5 -7.78765 0.025 0 0 -1.60516 0.163625 
111 1 -0.0487783 0.1761 -0.671384 0 -0.5 -7.78658 0.015 0 0 -0.346714 0.0353429 
75 1 -0.0493142 -0.0683279 -0.635596 0 -0.5 -7.74135 0.015 0 0 -0.346714 0.0353429 
89 1 -0.129145 -0.0396921 -0.626459 0 -0.5 -7.72978 0.015 0 0 -0.346714 0.0353429 
78 1 -0.0422369 0.139955 -0.649232 0 -0.5 -7.75862 0.015 0 0 -0.346714 0.0353429 
59 1 -0.0865612 0.0888678 -0.606243 0 -0.5 -7.70407 0.015 0 0 -0.346714 0.0353429 
92 1 -0.131017 0.183327 -0.584852 0 -0.5 -7.6768 0.015 0 0 -0.346714 0.0353429 
98 1 -0.147127 0.0324418 -0.505782 0 -0.5 -7.57507 0.015 0 0 -0.346714 0.0353429 
26 1 -0.0318603 0.047462 -0.534063 0.14857 -0.341553 -7.64585 0.025 0 0 -1.60516 0.163625 
151 1 -0.0686397 0.114527 -0.506605 0 -0.5 -7.57615 0.015 0 0 -0.346714 0.0353429 
8 1 -0.104188 -0.100537 -0.481902 0 -0.5 -7.54407 0.025 0 0 -1.60516 0.163625 
3 1 -0.141317 0.0973879 -0.470956 0 -0.5 -7.52985 0.025 0 0 -1.60516 0.163625 
72 1 -0.105673 0.134796 -0.452097 0 -0.5 -7.50522 0.015 0 0 -0.346714 0.0353429 
100 1 -0.0681017 -0.032079 -0.424906 0 -0.5 -7.46961 0.015 0 0 -0.346714 0.0353429 
140 1 -0.125739 0.00955638 -0.431712 0 -0.5 -7.47854 0.015 0 0 -0.346714 0.0353429 
118 1 -0.0372647 0.169681 -0.417744 0 -0.5 -7.4602 0.015 0 0 -0.346714 0.0353429 
40 1 -0.104474 0.186198 -0.430148 0 -0.5 -7.47648 0.025 0 0 -1.60516 0.163625 
117 1 -0.0596227 -0.0889792 -0.39675 0 -0.5 -7.43253 0.015 0 0 -0.346714 0.0353429 
51 1 -0.163204 -0.0781018 -0.361288 -0.0265052 -0.519812 -7.38063 0.025 0 0 -1.60516 0.163625 
282 1 -0.04371 -0.0453941 -0.354343 -0.2609 -0.673185 -7.36045 0.015 0 0 -0.346714 0.0353429 
148 1 -0.199415 0.0642669 -0.38231 -0.171679 -0.397353 -7.48187 0.015 0 0 -0.346714 0.0353429 
11 1 -0.0954062 0.0869396 -0.300444 0.022917 -0.457889 -7.31935 0.025 0 0 -1.60516 0.163625 
90 1 -0.146535 0.187667 -0.316976 0 -0.5 -7.32649 0.015 0 0 -0.346714 0.0353429 
60 1 -0.0770515 -0.0800724 -0.289946 0 -0.5 -7.29019 0.015 0 0 -0.346714 0.0353429 
50 1 -0.130982 0.144355 -0.287971 0 -0.5 -7.28754 0.025 0 0 -1.60516 0.163625 
105 1 -0.249826 0.0947762 -0.231961 -0.321192 -0.368687 -7.20306 0.015 0 0 -0.346714 0.0353429 
74 1 -0.0790012 0.131893 -0.243474 0 -0.5 -7.22741 0.015 0 0 -0.346714 0.0353429 
44 1 -0.125916 -0.0884035 -0.2097 0 -0.5 -7.1814 0.025 0 0 -1.60516 0.163625 
76 1 -0.0202065 0.16007 -0.22321 0 -0.5 -7.19984 0.015 0 0 -0.346714 0.0353429 
36 1 -0.103411 -0.0416875 -0.18234 0 -0.5 -7.14392 0.025 0 0 -1.60516 0.163625 
29 1 -0.0788351 0.174182 -0.189988 0 -0.5 -7.15442 0.025 0 0 -1.60516 0.163625 
54 1 -0.174945 -0.0120085 -0.153141 -0.0956439 -0.529683 -7.09262 0.015 0 0 -0.346714 0.0353429 
114 1 -0.0720975 -0.0114853 -0.137161 -0.00040144 -0.499666 -7.08171 0.015 0 0 -0.346714 0.0353429 
73 1 -0.0639552 -0.0622333 -0.0986361 0 -0.5 -7.02807 0.015 0 0 -0.346714 0.0353429 
2 1 -0.110349 0.0850712 -0.0913427 0 -0.5 -7.01786 0.025 0 0 -1.60516 0.163625 
113 1 -0.118506 0.209198 -0.10674 0 -0.5 -7.03935 0.015 0 0 -0.346714 0.0353429 
146 1 -0.109965 -0.0750837 -0.0701271 0 -0.5 -6.98814 0.015 0 0 -0.346714 0.0353429 
88 1 -0.0666498 0.151919 -0.0495419 0 -0.5 -6.9592 0.015 0 0 -0.346714 0.0353429 
12 1 -0.0363281 0.194336 -0.0720695 0 -0.5 -6.99089 0.025 0 0 -1.60516 0.163625 
99 1 -0.146283 -0.0104829 -0.0192958 0 -0.5 -6.91643 0.015 0 0 -0.346714 0.0353429 
57 1 -0.120673 0.0410605 -0.0355882 0 -0.5 -6.93948 0.015 0 0 -0.346714 0.0353429 
10 1 -0.0644993 0.167124 -0.0107745 0.0635655 -0.375939 -6.97312 0.025 0 0 -1.60516 0.163625 
66 1 -0.0281121 -0.0231772 0.0356474 0 -0.5 -6.83805 0.015 0 0 -0.346714 0.0353429 
83 1 -0.108229 0.019146 0.0256571 0 -0.5 -6.85237 0.015 0 0 -0.346714 0.0353429 
19 1 -0.0715757 -0.000747622 0.0305097 0 -0.5 -6.8454 0.025 0 0 -1.60516 0.163625 
34 1 -0.138562 0.158511 0.0183186 0 -0.5 -6.86287 0.025 0 0 -1.60516 0.163625 
67 1 -0.0183057 -0.0676113 0.0692989 0 -0.5 -6.78959 0.015 0 0 -0.346714 0.0353429 
81 1 -0.0337216 0.174145 0.0510664 0.07636 -0.438847 -6.78556 0.015 0 0 -0.346714 0.0353429 
71 1 -0.145263 0.202198 0.0463802 0 -0.5 -6.82265 0.015 0 0 -0.346714 0.0353429 
24 1 -0.138394 -0.0405481 0.0857764 0 -0.5 -6.76575 0.025 0 0 -1.60516 0.163625 
133 1 -0.127566 0.0759444 0.0974009 0 -0.5 -6.74887 0.015 0 0 -0.346714 0.0353429 
95 1 -0.10482 0.163312 0.102048 0 -0.5 -6.7421 0.015 0 0 -0.346714 0.0353429 
39 1 -0.0696793 0.21301 0.102196 0 -0.5 -6.74191 0.025 0 0 -1.60516 0.163625 
103 1 -0.135939 0.00372232 0.134839 0 -0.5 -6.69423 0.015 0 0 -0.346714 0.0353429 
70 1 -0.107191 -0.0140756 0.15107 0 -0.5 -6.67039 0.015 0 0 -0.346714 0.0353429 
143 1 -0.11631 0.221682 0.146407 0 -0.5 -6.67726 0.015 0 0 -0.346714 0.0353429 
28 1 -0.0685748 -0.0379299 0.184377 0 -0.5 -6.62125 0.025 0 0 -1.60516 0.163625 
97 1 -0.0338223 -0.010856 0.172441 0 -0.5 -6.6389 0.015 0 0 -0.346714 0.0353429 
115 1 -0.076478 0.0244311 0.172977 0 -0.5 -6.63812 0.015 0 0 -0.346714 0.0353429 
85 1 -0.13789 0.146015 0.176158 0 -0.5 -6.63341 0.015 0 0 -0.346714 0.0353429 
134 1 -0.137197 0.186367 0.197391 0 -0.5 -6.60192 0.015 0 0 -0.346714 0.0353429 
126 1 -0.124757 0.0681152 0.215058 -0.0288748 -0.539424 -6.55675 0.015 0 0 -0.346714 0.0353429 
120 1 -0.148569 0.235261 0.209338 0 -0.5 -6.58416 0.015 0 0 -0.346714 0.0353429 
77 1 -0.0297287 0.214749 0.206687 0 -0.5 -6.58809 0.015 0 0 -0.346714 0.0353429 
96 1 -0.131998 -0.0109186 0.232253 0 -0.5 -6.54993 0.015 0 0 -0.346714 0.0353429 
38 1 -0.121616 0.0301879 0.25896 0 -0.5 -6.5098 0.025 0 0 -1.60516 0.163625 
130 1 -0.0642546 0.0244407 0.308599 0 -0.5 -6.43456 0.015 0 0 -0.346714 0.0353429 
23 1 -0.134189 0.166519 0.307445 0 -0.5 -6.43633 0.025 0 0 -1.60516 0.163625 
150 1 -0.100106 0.00120692 0.337522 0 -0.5 -6.39032 0.015 0 0 -0.346714 0.0353429 
18 1 -0.106015 0.231686 0.339111 0 -0.5 -6.38787 0.025 0 0 -1.60516 0.163625 
4 1 -0.0330873 0.244857 0.338102 0 -0.5 -6.38944 0.025 0 0 -1.60516 0.163625 
31 1 -0.140814 -0.0331227 0.356137 0 -0.5 -6.36167 0.025 0 0 -1.60516 0.163625 
106 1 -0.144263 0.347371 0.359966 -0.0998962 -0.230395 -6.47041 0.015 0 0 -0.346714 0.0353429 
110 1 -0.0868918 -0.0435835 0.389655 0 -0.5 -6.30978 0.015 0 0 -0.346714 0.0353429 
93 1 -0.0244706 -0.0318422 0.406591 0 -0.5 -6.28339 0.015 0 0 -0.346714 0.0353429 
136 1 -0.0832352 0.175008 0.41099 0 -0.5 -6.27652 0.015 0 0 -0.346714 0.0353429 
17 1 -0.134634 0.0820265 0.415127 0 -0.5 -6.27005 0.025 0 0 -1.60516 0.163625 
30 1 -0.0481876 0.202857 0.420832 0 -0.5 -6.26112 0.025 0 0 -1.60516 0.163625 
109 1 -0.0676248 0.25008 0.419506 0 -0.5 -6.26318 0.015 0 0 -0.346714 0.0353429 
108 1 -0.089121 -0.0111765 0.472155 0 -0.5 -6.18019 0.015 0 0 -0.346714 0.0353429 
1 1 -0.150804 0.426598 0.458991 -0.021394 -0.0706631 -6.33537 0.025 0 0 -1.60516 0.163625 
69 1 -0.020474 0.00908251 0.499553 0 -0.5 -6.13653 0.015 0 0 -0.346714 0.0353429 
149 1 -0.0331731 0.103863 0.531935 0.199959 -0.45766 -6.27013 0.015 0 0 -0.346714 0.0353429 
35 1 -0.146938 0.182792 0.507701 0 -0.5 -6.12349 0.025 0 0 -1.60516 0.163625 
102 1 -0.11709 -0.0111005 0.545493 0 -0.5 -6.06266 0.015 0 0 -0.346714 0.0353429 
14 1 -0.0571303 -0.0190245 0.558618 0 -0.5 -6.04138 0.025 0 0 -1.60516 0.163625 
139 1 -0.104092 0.046572 0.5453 0 -0.5 -6.06296 0.015 0 0 -0.346714 0.0353429 
144 1 -0.0691235 0.0494741 0.54416 0 -0.5 -6.06482 0.015 0 0 -0.346714 0.0353429 
22 1 -0.102489 0.114306 0.539118 0 -0.5 -6.07296 0.025 0 0 -1.60516 0.163625 
55 1 -0.0960002 0.220401 0.564338 -7.52477e-06 -0.49998 -6.03209 0.015 0 0 -0.346714 0.0353429 
141 1 -0.136875 0.0622642 0.576518 0 -0.5 -6.01224 0.015 0 0 -0.346714 0.0353429 
21 1 -0.0470047 0.2655 0.594143 0 -0.5 -5.9834 0.025 0 0 -1.60516 0.163625 
87 1 -0.113676 0.183588 0.611999 0 -0.5 -5.95407 0.015 0 0 -0.346714 0.0353429 
94 1 -0.254732 0.21146 0.609206 -0.356499 -0.190573 -6.01963 0.015 0 0 -0.346714 0.0353429 
107 1 -0.141609 -0.0220523 0.643835 0 -0.5 -5.90139 0.015 0 0 -0.346714 0.0353429 
112 1 -0.073338 0.0612787 0.67526 0 -0.5 -5.8489 0.015 0 0 -0.346714 0.0353429 
84 1 -0.116406 0.141786 0.671112 0 -0.5 -5.85587 0.015 0 0 -0.346714 0.0353429 
147 1 -0.100309 0.253431 0.662896 0 -0.5 -5.8696 0.015 0 0 -0.346714 0.0353429 
142 1 -0.0724928 0.00274781 0.701251 0 -0.5 -5.80515 0.015 0 0 -0.346714 0.0353429 
47 1 -0.140465 0.22545 0.701366 0 -0.5 -5.80496 0.025 0 0 -1.60516 0.163625 
145 1 -0.0934491 0.218113 0.703811 0 -0.5 -5.80084 0.015 0 0 -0.346714 0.0353429 
6 1 -0.0711024 0.0511827 0.728683 0.101461 -0.428163 -5.76433 0.025 0 0 -1.60516 0.163625 
80 1 -0.102893 0.188893 0.722786 0 -0.5 -5.76866 0.015 0 0 -0.346714 0.0353429 
32 1 -0.172758 -0.018904 0.760372 -0.0613285 -0.540948 -5.70139 0.025 0 0 -1.60516 0.163625 
138 1 -0.0317395 0.00531559 0.780247 0 -0.5 -5.67007 0.015 0 0 -0.346714 0.0353429 
135 1 -0.140472 0.0708926 0.757489 0 -0.5 -5.70931 0.015 0 0 -0.346714 0.0353429 
15 1 -0.0767317 0.155846 0.768551 0.0430154 -0.390763 -5.65713 0.025 0 0 -1.60516 0.163625 
62 1 -0.0849655 0.278406 0.757161 0 -0.5 -5.7099 0.015 0 0 -0.346714 0.0353429 
280 1 -0.0774759 0.44044 0.775157 -0.323138 -0.0374805 -5.77198 0.015 0 0 -0.346714 0.0353429 
128 1 -0.145291 0.155677 0.78224 0 -0.5 -5.66663 0.015 0 0 -0.346714 0.0353429 
121 1 -0.0679495 0.260078 0.806238 0 -0.5 -5.62494 0.015 0 0 -0.346714 0.0353429 
129 1 -0.0553418 0.0291994 0.850248 0 -0.5 -5.54764 0.015 0 0 -0.346714 0.0353429 
13 1 -0.146779 0.111821 0.867745 0 -0.5 -5.51664 0.025 0 0 -1.60516 0.163625 
101 1 -0.102489 0.121824 0.862874 0 -0.5 -5.52527 0.015 0 0 -0.346714 0.0353429 
37 1 -0.0716655 0.224665 0.862211 0 -0.5 -5.52645 0.025 0 0 -1.60516 0.163625 
46 1 -0.032303 0.286569 0.868457 0 -0.5 -5.51536 0.025 0 0 -1.60516 0.163625 
52 1 -0.100497 0.0144895 0.89114 0 -0.5 -5.47485 0.015 0 0 -0.346714 0.0353429 
61 1 -0.0231802 -0.00106524 0.881279 0 -0.5 -5.49251 0.015 0 0 -0.346714 0.0353429 
79 1 -0.0179342 0.0329843 0.881382 0 -0.5 -5.49231 0.015 0 0 -0.346714 0.0353429 
20 1 -0.124339 0.169888 0.899958 0 -0.5 -5.45906 0.025 0 0 -1.60516 0.163625 
91 1 -0.124131 0.218132 0.881933 0 -0.5 -5.49133 0.015 0 0 -0.346714 0.0353429 
5 1 -0.137704 0.0424118 0.903936 0 -0.5 -5.45189 0.025 0 0 -1.60516 0.163625 
7 1 -0.0712578 0.0814494 0.907913 0 -0.5 -5.44473 0.025 0 0 -1.60516 0.163625 
86 1 -0.142939 0.211059 0.949755 0 -0.5 -5.3688 0.015 0 0 -0.346714 0.0353429 
9 1 -0.0320364 0.245159 0.953839 0 -0.5 -5.36135 0.025 0 0 -1.60516 0.163625 
65 1 -0.147981 0.0190967 0.986721 0 -0.5 -5.30082 0.015 0 0 -0.346714 0.0353429 
58 1 -0.0969698 0.115891 0.970404 0 -0.5 -5.33094 0.015 0 0 -0.346714 0.0353429 
124 1 -0.136447 0.241377 0.970252 0 -0.5 -5.33123 0.015 0 0 -0.346714 0.0353429 
41 1 -0.107908 0.296758 0.983655 0 -0.5 -5.30651 0.025 0 0 -1.60516 0.163625 
131 1 -0.025873 0.28404 1.01966 0 -0.5 -5.23951 0.015 0 0 -0.346714 0.0353429 
132 1 -0.0234712 0.0521681 1.05306 0 -0.5 -5.17663 0.015 0 0 -0.346714 0.0353429 
48 1 -0.144727 0.109852 1.05211 0 -0.5 -5.17839 0.025 0 0 -1.60516 0.163625 
53 1 -0.106432 0.15434 1.05461 0 -0.5 -5.17368 0.015 0 0 -0.346714 0.0353429 
104 1 -0.138444 0.183217 1.03096 0 -0.5 -5.21832 0.015 0 0 -0.346714 0.0353429 
49 1 -0.0613084 0.0297105 1.07624 0 -0.5 -5.13248 0.025 0 0 -1.60516 0.163625 
16 1 -0.129915 0.253079 1.07989 0 -0.5 -5.12552 0.025 0 0 -1.60516 0.163625 
27 1 -0.0637137 0.279885 1.08065 0 -0.5 -5.12404 0.025 0 0 -1.60516 0.163625 
82 1 -0.0851821 0.243627 1.08731 0 -0.5 -5.11129 0.015 0 0 -0.346714 0.0353429 
63 1 -0.147823 0.309713 1.09822 0 -0.5 -5.0903 0.015 0 0 -0.346714 0.0353429 
25 1 -0.104447 0.0637853 1.13171 0 -0.5 -5.02535 0.025 0 0 -1.60516 0.163625 
127 1 -0.0304133 0.0756212 1.11856 0 -0.5 -5.05096 0.015 0 0 -0.346714 0.0353429 
56 1 -0.11556 0.307119 1.1184 0 -0.5 -5.05125 0.015 0 0 -0.346714 0.0353429 
42 1 -0.132916 0.156796 1.14843 0 -0.5 -4.99259 0.025 0 0 -1.60516 0.163625 
123 1 -0.11925 0.213492 1.15267 0 -0.5 -4.98425 0.015 0 0 -0.346714 0.0353429 
64 1 -0.145219 0.277177 1.16872 0 -0.5 -4.95256 0.015 0 0 -0.346714 0.0353429 
125 1 -0.0960051 0.269127 1.17086 0 -0.5 -4.94835 0.015 0 0 -0.346714 0.0353429 
361 1 -0.0655065 0.0551594 1.18506 0 -0.5 -4.92009 0.015 0 0 -0.346714 0.0353429 
392 1 -0.0201822 0.0273766 1.18792 0 -0.5 -4.9144 0.015 0 0 -0.346714 0.0353429 
375 1 -0.132504 0.0922129 1.19586 0 -0.5 -4.89851 0.015 0 0 -0.346714 0.0353429 
391 1 -0.0665259 0.25419 1.18663 0 -0.5 -4.91695 0.015 0 0 -0.346714 0.0353429 
353 1 -0.0778865 0.10851 1.2177 0 -0.5 -4.85456 0.015 0 0 -0.346714 0.0353429 
432 1 -0.110656 0.168023 1.23159 0 -0.5 -4.82641 0.015 0 0 -0.346714 0.0353429 
423 1 -0.035066 0.272352 1.22972 0 -0.5 -4.83023 0.015 0 0 -0.346714 0.0353429 
370 1 -0.0476722 0.326061 1.21767 0 -0.5 -4.85466 0.015 0 0 -0.346714 0.0353429 
449 1 -0.121601 0.0329702 1.24403 0 -0.5 -4.8011 0.015 0 0 -0.346714 0.0353429 
348 1 -0.047627 0.0435657 1.26386 -0.0150753 -0.514502 -4.75695 0.025 0 0 -1.60516 0.163625 
434 1 -0.110177 0.300235 1.26914 0 -0.5 -4.7495 0.015 0 0 -0.346714 0.0353429 
409 1 -0.1116 0.140279 1.27156 0 -0.5 -4.74449 0.015 0 0 -0.346714 0.0353429 
304 1 -0.147639 0.266299 1.29835 0 -0.5 -4.68877 0.025 0 0 -1.60516 0.163625 
414 1 -0.12165 0.210412 1.33236 0 -0.5 -4.61706 0.015 0 0 -0.346714 0.0353429 
327 1 -0.047146 0.303396 1.32692 0 -0.5 -4.62864 0.025 0 0 -1.60516 0.163625 
368 1 -0.0426125 0.0781031 1.35021 0 -0.5 -4.579 0.015 0 0 -0.346714 0.0353429 
416 1 -0.148865 0.231752 1.34498 0 -0.5 -4.59018 0.015 0 0 -0.346714 0.0353429 
422 1 -0.0856494 0.294628 1.34838 0 -0.5 -4.58292 0.015 0 0 -0.346714 0.0353429 
440 1 -0.074831 0.0546332 1.39151 0 -0.5 -4.48963 0.015 0 0 -0.346714 0.0353429 
307 1 -0.141488 0.0723164 1.37809 0 -0.5 -4.51886 0.025 0 0 -1.60516 0.163625 
328 1 -0.101567 0.10336 1.36654 0 -0.5 -4.54388 0.025 0 0 -1.60516 0.163625 
342 1 -0.0942786 0.254007 1.36776 0 -0.5 -4.54123 0.025 0 0 -1.60516 0.163625 
441 1 -0.0895132 0.332957 1.37849 0 -0.5 -4.51798 0.015 0 0 -0.346714 0.0353429 
388 1 -0.0545692 0.118686 1.4196 0 -0.5 -4.42783 0.015 0 0 -0.346714 0.0353429 
323 1 -0.131477 0.187813 1.41762 0 -0.5 -4.43224 0.025 0 0 -1.60516 0.163625 
352 1 -0.144025 0.291939 1.40236 0 -0.5 -4.46589 0.015 0 0 -0.346714 0.0353429 
330 1 -0.125578 0.348028 1.40677 0 -0.5 -4.45618 0.025 0 0 -1.60516 0.163625 
406 1 -0.0920408 0.291666 1.42791 0 -0.5 -4.40939 0.015 0 0 -0.346714 0.0353429 
331 1 -0.138106 0.059831 1.48086 0 -0.5 -4.29 0.025 0 0 -1.60516 0.163625 
418 1 -0.0554251 0.0649403 1.46762 0 -0.5 -4.32011 0.015 0 0 -0.346714 0.0353429 
395 1 -0.110093 0.115872 1.47458 0 -0.5 -4.30432 0.015 0 0 -0.346714 0.0353429 
318 1 -0.126425 0.265158 1.46526 0 -0.5 -4.32551 0.025 0 0 -1.60516 0.163625 
336 1 -0.025747 0.298523 1.47371 0 -0.5 -4.30628 0.025 0 0 -1.60516 0.163625 
313 1 -0.0392615 0.103689 1.49411 0 -0.5 -4.25959 0.025 0 0 -1.60516 0.163625 
374 1 -0.133879 0.325467 1.49644 0 -0.5 -4.25419 0.015 0 0 -0.346714 0.0353429 
310 1 -0.0919271 0.335993 1.5146 0 -0.5 -4.21211 0.025 0 0 -1.60516 0.163625 
315 1 -0.0970947 0.170406 1.5175 0 -0.5 -4.20534 0.025 0 0 -1.60516 0.163625 
445 1 -0.0938501 0.240643 1.533 0 -0.5 -4.16904 0.015 0 0 -0.346714 0.0353429 
407 1 -0.0713596 0.298089 1.51894 0 -0.5 -4.202 0.015 0 0 -0.346714 0.0353429 
377 1 -0.128279 0.0877203 1.55624 0 -0.5 -4.11401 0.015 0 0 -0.346714 0.0353429 
344 1 -0.147144 0.241445 1.57227 0 -0.5 -4.07555 0.025 0 0 -1.60516 0.163625 
386 1 -0.118095 0.30911 1.55227 0 -0.5 -4.12342 0.015 0 0 -0.346714 0.0353429 
302 1 -0.0567477 0.0853163 1.591 0 -0.5 -4.03023 0.025 0 0 -1.60516 0.163625 
401 1 -0.0913429 0.11678 1.58903 0 -0.5 -4.03504 0.015 0 0 -0.346714 0.0353429 
314 1 -0.136534 0.153236 1.59992 0 -0.5 -4.00845 0.025 0 0 -1.60516 0.163625 
439 1 -0.132801 0.203897 1.58604 0 -0.5 -4.04229 0.015 0 0 -0.346714 0.0353429 
431 1 -0.13363 0.113651 1.62822 0 -0.5 -3.9386 0.015 0 0 -0.346714 0.0353429 
355 1 -0.0483468 0.132759 1.62099 0 -0.5 -3.95656 0.015 0 0 -0.346714 0.0353429 
354 1 -0.0927402 0.301498 1.62664 0 -0.5 -3.94253 0.015 0 0 -0.346714 0.0353429 
413 1 -0.0512121 0.302816 1.61488 0 -0.5 -3.97166 0.015 0 0 -0.346714 0.0353429 
442 1 -0.149932 0.362171 1.61621 0 -0.5 -3.96843 0.015 0 0 -0.346714 0.0353429 
408 1 -0.087028 0.370439 1.62518 0 -0.5 -3.94616 0.015 0 0 -0.346714 0.0353429 
446 1 -0.116317 0.270626 1.64938 0 -0.5 -3.88553 0.015 0 0 -0.346714 0.0353429 
411 1 -0.0485728 0.353056 1.65718 0 -0.5 -3.86581 0.015 0 0 -0.346714 0.0353429 
382 1 -0.107005 0.388384 1.64643 0.026541 -0.439017 -3.98175 0.015 0 0 -0.346714 0.0353429 
350 1 -0.147794 0.123395 1.70188 0 -0.5 -3.75064 0.025 0 0 -1.60516 0.163625 
399 1 -0.074527 0.136048 1.69051 0 -0.5 -3.78027 0.015 0 0 -0.346714 0.0353429 
335 1 -0.126459 0.184418 1.70167 0 -0.5 -3.75123 0.025 0 0 -1.60516 0.163625 
436 1 -0.0854574 0.190951 1.68986 0 -0.5 -3.78194 0.015 0 0 -0.346714 0.0353429 
341 1 -0.148816 0.304228 1.69251 0 -0.5 -3.77507 0.025 0 0 -1.60516 0.163625 
389 1 -0.0230912 0.377676 1.69365 0 -0.5 -3.77213 0.015 0 0 -0.346714 0.0353429 
427 1 -0.100692 0.418639 1.68012 0.0988458 -0.172977 -4.01898 0.015 0 0 -0.346714 0.0353429 
324 1 -0.0498553 0.0907032 1.71142 0 -0.5 -3.72563 0.025 0 0 -1.60516 0.163625 
437 1 -0.0723044 0.167232 1.71874 0 -0.5 -3.7063 0.015 0 0 -0.346714 0.0353429 
385 1 -0.0696212 0.313365 1.70825 0 -0.5 -3.73397 0.015 0 0 -0.346714 0.0353429 
384 1 -0.165843 0.393142 1.70497 -0.135564 -0.440896 -3.76507 0.015 0 0 -0.346714 0.0353429 
367 1 -0.106717 0.147831 1.75274 0 -0.5 -3.61517 0.015 0 0 -0.346714 0.0353429 
394 1 -0.145405 0.342684 1.74178 0 -0.5 -3.64479 0.015 0 0 -0.346714 0.0353429 
424 1 -0.129227 0.367914 1.75978 -0.0730123 -0.390635 -3.60642 0.015 0 0 -0.346714 0.0353429 
426 1 -0.0179373 0.372964 1.75235 0 -0.5 -3.61625 0.015 0 0 -0.346714 0.0353429 
319 1 -0.0687817 0.394025 1.76386 0 -0.5 -3.58485 0.025 0 0 -1.60516 0.163625 
358 1 -0.127277 0.114792 1.76641 0 -0.5 -3.57789 0.015 0 0 -0.346714 0.0353429 
376 1 -0.0824761 0.159772 1.78584 0 -0.5 -3.52423 0.015 0 0 -0.346714 0.0353429 
326 1 -0.145564 0.244454 1.76806 0 -0.5 -3.57338 0.025 0 0 -1.60516 0.163625 
433 1 -0.118613 0.100665 1.80919 0 -0.5 -3.4586 0.015 0 0 -0.346714 0.0353429 
420 1 -0.037203 0.108826 1.81259 0 -0.5 -3.44899 0.015 0 0 -0.346714 0.0353429 
402 1 -0.101682 0.144287 1.81585 0 -0.5 -3.43967 0.015 0 0 -0.346714 0.0353429 
306 1 -0.116739 0.322034 1.81478 0 -0.5 -3.44271 0.025 0 0 -1.60516 0.163625 
412 1 -0.0937388 0.392584 1.82011 0 -0.5 -3.4275 0.015 0 0 -0.346714 0.0353429 
363 1 -0.0911777 0.221327 1.83702 0 -0.5 -3.37875 0.015 0 0 -0.346714 0.0353429 
360 1 -0.116599 0.245221 1.83554 0 -0.5 -3.38306 0.015 0 0 -0.346714 0.0353429 
397 1 -0.0557758 0.333618 1.84046 0 -0.5 -3.36874 0.015 0 0 -0.346714 0.0353429 
371 1 -0.0449321 0.372104 1.83401 0 -0.5 -3.38748 0.015 0 0 -0.346714 0.0353429 
322 1 -0.131733 0.131564 1.86473 0 -0.5 -3.29732 0.025 0 0 -1.60516 0.163625 
398 1 -0.0103753 0.219212 1.87733 0.308366 -0.162474 -3.30119 0.015 0 0 -0.346714 0.0353429 
373 1 -0.136858 0.278184 1.87282 0 -0.5 -3.27319 0.015 0 0 -0.346714 0.0353429 
396 1 -0.0958984 0.29866 1.86658 0 -0.5 -3.29183 0.015 0 0 -0.346714 0.0353429 
369 1 -0.138958 0.336563 1.87529 0 -0.5 -3.26574 0.015 0 0 -0.346714 0.0353429 
383 1 -0.0262689 0.354803 1.87625 0 -0.5 -3.26289 0.015 0 0 -0.346714 0.0353429 
381 1 -0.0827007 0.367114 1.86173 0 -0.5 -3.30625 0.015 0 0 -0.346714 0.0353429 
308 1 -0.0775844 0.148162 1.89573 -0.0168546 -0.516386 -3.20169 0.025 0 0 -1.60516 0.163625 
415 1 -0.127182 0.18213 1.91485 0 -0.5 -3.14468 0.015 0 0 -0.346714 0.0353429 
438 1 -0.0987495 0.230333 1.89689 0 -0.5 -3.2002 0.015 0 0 -0.346714 0.0353429 
356 1 -0.111476 0.273564 1.90304 0 -0.5 -3.18127 0.015 0 0 -0.346714 0.0353429 
443 1 -0.0906469 0.328658 1.91308 0 -0.5 -3.15017 0.015 0 0 -0.346714 0.0353429 
340 1 -0.149237 0.401237 1.9026 0 -0.5 -3.18264 0.025 0 0 -1.60516 0.163625 
390 1 -0.0988461 0.14259 1.94735 0 -0.5 -3.04158 0.015 0 0 -0.346714 0.0353429 
343 1 -0.140775 0.240899 1.92103 0 -0.5 -3.12535 0.025 0 0 -1.60516 0.163625 
351 1 -0.0409452 0.359112 1.92853 0 -0.5 -3.10171 0.015 0 0 -0.346714 0.0353429 
349 1 -0.116564 0.360594 1.92449 0 -0.5 -3.11447 0.025 0 0 -1.60516 0.163625 
448 1 -0.0329565 0.15157 1.96644 0 -0.5 -2.97938 0.015 0 0 -0.346714 0.0353429 
347 1 -0.0548177 0.18889 1.97137 0 -0.5 -2.9631 0.025 0 0 -1.60516 0.163625 
378 1 -0.121409 0.237198 1.97713 0 -0.5 -2.94397 0.015 0 0 -0.346714 0.0353429 
312 1 -0.134707 0.296718 1.97808 0 -0.5 -2.94083 0.025 0 0 -1.60516 0.163625 
417 1 -0.0160313 0.396054 1.97807 0 -0.5 -2.94083 0.015 0 0 -0.346714 0.0353429 
346 1 -0.15128 0.432442 1.97826 -0.0151472 -0.325165 -2.99926 0.025 0 0 -1.60516 0.163625 
419 1 -0.111609 0.133519 1.99254 0 -0.5 -2.89217 0.015 0 0 -0.346714 0.0353429 
362 1 -0.0154426 0.183609 1.9901 0 -0.5 -2.90041 0.015 0 0 -0.346714 0.0353429 
421 1 -0.0930175 0.213542 2.00455 0 -0.5 -2.85116 0.015 0 0 -0.346714 0.0353429 
359 1 -0.107325 0.341399 1.9844 0 -0.5 -2.91964 0.015 0 0 -0.346714 0.0353429 
303 1 -0.0551599 0.360479 1.99046 0 -0.5 -2.89923 0.025 0 0 -1.60516 0.163625 
334 1 -0.103439 0.396448 1.99943 0 -0.5 -2.86872 0.025 0 0 -1.60516 0.163625 
325 1 -0.117824 0.257025 2.03551 0 -0.5 -2.74257 0.025 0 0 -1.60516 0.163625 
365 1 -0.144201 0.354648 2.02483 0.0322739 -0.84426 -2.66398 0.015 0 0 -0.346714 0.0353429 
309 1 -0.144284 0.172031 2.06038 0 -0.5 -2.65212 0.025 0 0 -1.60516 0.163625 
320 1 -0.0648735 0.172929 2.04747 0 -0.5 -2.6994 0.025 0 0 -1.60516 0.163625 
430 1 -0.123083 0.219393 2.06904 0 -0.5 -2.61984 0.015 0 0 -0.346714 0.0353429 
403 1 -0.0833248 0.225397 2.07159 0 -0.5 -2.61033 0.015 0 0 -0.346714 0.0353429 
372 1 -0.0702168 0.356237 2.05201 0 -0.5 -2.68292 0.015 0 0 -0.346714 0.0353429 
387 1 -0.0901615 0.334452 2.06319 0 -0.5 -2.64172 0.015 0 0 -0.346714 0.0353429 
447 1 -0.122284 0.437789 2.04821 0 -0.5 -2.69676 0.015 0 0 -0.346714 0.0353429 
338 1 -0.0583644 0.425556 2.06196 0 -0.5 -2.64623 0.025 0 0 -1.60516 0.163625 
379 1 -0.0327871 0.174329 2.08382 0 -0.5 -2.56393 0.015 0 0 -0.346714 0.0353429 
393 1 -0.015571 0.396279 2.08077 0 -0.5 -2.5756 0.015 0 0 -0.346714 0.0353429 
316 1 -0.0983119 0.158111 2.1119 0 -0.5 -2.45415 0.025 0 0 -1.60516 0.163625 
364 1 -0.0453235 0.188807 2.12185 0 -0.5 -2.41403 0.015 0 0 -0.346714 0.0353429 
321 1 -0.126579 0.229251 2.12267 0 -0.5 -2.4107 0.025 0 0 -1.60516 0.163625 
357 1 -0.0584785 0.223214 2.10677 0 -0.5 -2.47456 0.015 0 0 -0.346714 0.0353429 
410 1 -0.145474 0.278536 2.12638 0 -0.5 -2.39559 0.015 0 0 -0.346714 0.0353429 
333 1 -0.0978849 0.291337 2.12346 0 -0.5 -2.40746 0.025 0 0 -1.60516 0.163625 
380 1 -0.127355 0.333976 2.11788 0 -0.5 -2.43012 0.015 0 0 -0.346714 0.0353429 
337 1 -0.142368 0.374838 2.13532 0 -0.5 -2.3587 0.025 0 0 -1.60516 0.163625 
301 1 -0.0878869 0.397811 2.11306 0.012148 -0.512208 -2.44953 0.025 0 0 -1.60516 0.163625 
428 1 -0.0387226 0.408002 2.11704 0 -0.5 -2.43355 0.015 0 0 -0.346714 0.0353429 
329 1 -0.12409 0.434303 2.10998 -0.0138001 -0.485947 -2.46194 0.025 0 0 -1.60516 0.163625 
450 1 -0.0322061 0.452898 2.11805 0 -0.5 -2.42943 0.015 0 0 -0.346714 0.0353429 
332 1 -0.0814262 0.220266 2.16661 0 -0.5 -2.2247 0.025 0 0 -1.60516 0.163625 
425 1 -0.074083 0.166787 2.17791 0 -0.5 -2.17437 0.015 0 0 -0.346714 0.0353429 
404 1 -0.119976 0.187844 2.19492 0 -0.5 -2.09619 0.015 0 0 -0.346714 0.0353429 
311 1 -0.0354402 0.182368 2.18621 0 -0.5 -2.13651 0.025 0 0 -1.60516 0.163625 
345 1 -0.128178 0.230674 2.19226 0 -0.5 -2.10855 0.025 0 0 -1.60516 0.163625 
400 1 -0.135353 0.263905 2.16953 0 -0.5 -2.21185 0.015 0 0 -0.346714 0.0353429 
435 1 -0.0960728 0.267976 2.19526 0 -0.5 -2.09462 0.015 0 0 -0.346714 0.0353429 
317 1 -0.129905 0.306055 2.18352 0 -0.5 -2.14887 0.025 0 0 -1.60516 0.163625 
366 1 -0.144217 0.383022 2.18164 0 -0.5 -2.1574 0.015 0 0 -0.346714 0.0353429 
405 1 -0.038992 0.41739 2.18608 0 -0.5 -2.13709 0.015 0 0 -0.346714 0.0353429 
339 1 -0.0802774 0.42866 2.17749 0 -0.5 -2.17624 0.025 0 0 -1.60516 0.163625 
305 1 -0.0452536 0.465472 2.1779 0 -0.5 -2.17437 0.025 0 0 -1.60516 0.163625 
714 1 -0.0240605 0.230471 2.22243 -0 0 -2 0.015 0 0 0 0.0353429 
675 1 -0.129194 0.40975 2.22835 -0 0 -2 0.015 0 0 0 0.0353429 
634 1 -0.102181 0.449201 2.2263 -0 0 -2 0.025 0 0 0 0.163625 
690 1 -0.0634806 0.42799 2.2253 -0 0 -2 0.015 0 0 0 0.0353429 
444 1 -0.0159467 0.463826 2.20753 0 -0.5 -2.03635 0.015 0 0 -0.346714 0.0353429 
608 1 -0.0938106 0.190518 2.25611 -0 0 -2 0.025 0 0 0 0.163625 
676 1 -0.132839 0.256147 2.22989 -0 0 -2 0.015 0 0 0 0.0353429 
652 1 -0.0683105 0.258868 2.23689 -0 0 -2 0.015 0 0 0 0.0353429 
629 1 -0.113195 0.304511 2.2425 -0 0 -2 0.025 0 0 0 0.163625 
606 1 -0.122934 0.377365 2.25695 -0 0 -2 0.025 0 0 0 0.163625 
708 1 -0.0786991 0.414901 2.25701 -0 0 -2 0.015 0 0 0 0.0353429 
669 1 -0.0318411 0.436013 2.23854 -0 0 -2 0.015 0 0 0 0.0353429 
701 1 -0.0870486 0.472769 2.25862 -0 0 -2 0.015 0 0 0 0.0353429 
682 1 -0.0469368 0.185531 2.26001 -0 0 -2 0.015 0 0 0 0.0353429 
657 1 -0.0480729 0.222592 2.26436 -0 0 -2 0.015 0 0 0 0.0353429 
735 1 -0.0832421 0.264469 2.27181 -0 0 -2 0.015 0 0 0 0.0353429 
709 1 -0.101732 0.309231 2.28821 -0 0 -2 0.015 0 0 0 0.0353429 
660 1 -0.0183143 0.425627 2.26601 -0 0 -2 0.015 0 0 0 0.0353429 
707 1 -0.0900659 0.206764 2.29991 -0 0 -2 0.015 0 0 0 0.0353429 
618 1 -0.13283 0.225849 2.29226 -0 0 -2 0.025 0 0 0 0.163625 
640 1 -0.0489559 0.223297 2.31189 -0 0 -2 0.025 0 0 0 0.163625 
680 1 -0.0791761 0.259986 2.30659 -0 0 -2 0.015 0 0 0 0.0353429 
649 1 -0.129761 0.339812 2.30047 -0 0 -2 0.025 0 0 0 0.163625 
750 1 -0.0862874 0.372619 2.29325 -0 0 -2 0.015 0 0 0 0.0353429 
616 1 -0.140255 0.428954 2.31225 -0 0 -2 0.025 0 0 0 0.163625 
712 1 -0.0372677 0.47295 2.31742 -0 0 -2 0.015 0 0 0 0.0353429 
677 1 -0.113879 0.190408 2.32659 -0 0 -2 0.015 0 0 0 0.0353429 
736 1 -0.0864872 0.278273 2.3491 -0 0 -2 0.015 0 0 0 0.0353429 
744 1 -0.107021 0.37483 2.3346 -0 0 -2 0.015 0 0 0 0.0353429 
685 1 -0.0969629 0.419298 2.34462 -0 0 -2 0.015 0 0 0 0.0353429 
725 1 -0.0732043 0.428899 2.32186 -0 0 -2 0.015 0 0 0 0.0353429 
748 1 -0.0192599 0.200066 2.37807 -0 0 -2 0.015 0 0 0 0.0353429 
610 1 -0.108705 0.213129 2.36869 -0 0 -2 0.025 0 0 0 0.163625 
692 1 -0.0389882 0.23636 2.36184 -0 0 -2 0.015 0 0 0 0.0353429 
625 1 -0.115962 0.283889 2.37987 -0 0 -2 0.025 0 0 0 0.163625 
722 1 -0.124711 0.413708 2.36188 -0 0 -2 0.015 0 0 0 0.0353429 
683 1 -0.0829948 0.413557 2.37116 -0 0 -2 0.015 0 0 0 0.0353429 
732 1 -0.0691875 0.449832 2.37426 -0 0 -2 0.015 0 0 0 0.0353429 
620 1 -0.0294016 0.445755 2.36702 -0 0 -2 0.025 0 0 0 0.163625 
674 1 -0.11657 0.471494 2.3592 -0 0 -2 0.015 0 0 0 0.0353429 
699 1 -0.0856858 0.473675 2.35799 -0 0 -2 0.015 0 0 0 0.0353429 
705 1 -0.0946775 0.182879 2.4006 -0 0 -2 0.015 0 0 0 0.0353429 
641 1 -0.143995 0.248499 2.40514 -0 0 -2 0.025 0 0 0 0.163625 
678 1 -0.0973357 0.337318 2.39066 -0 0 -2 0.015 0 0 0 0.0353429 
636 1 -0.149776 0.383946 2.38512 -0 0 -2 0.025 0 0 0 0.163625 
698 1 -0.111785 0.421731 2.40655 -0 0 -2 0.015 0 0 0 0.0353429 
696 1 -0.058387 0.410183 2.39764 -0 0 -2 0.015 0 0 0 0.0353429 
648 1 -0.130879 0.464062 2.40215 -0 0 -2 0.025 0 0 0 0.163625 
644 1 -0.140738 0.186408 2.42658 -0 0 -2 0.025 0 0 0 0.163625 
637 1 -0.0618774 0.209032 2.42215 -0 0 -2 0.025 0 0 0 0.163625 
730 1 -0.0250727 0.190561 2.41776 -0 0 -2 0.015 0 0 0 0.0353429 
729 1 -0.0894542 0.239788 2.42348 -0 0 -2 0.015 0 0 0 0.0353429 
724 1 -0.0903421 0.274729 2.43214 -0 0 -2 0.015 0 0 0 0.0353429 
694 1 -0.138308 0.343846 2.41255 -0 0 -2 0.015 0 0 0 0.0353429 
733 1 -0.0833844 0.376757 2.41308 -0 0 -2 0.015 0 0 0 0.0353429 
628 1 -0.0865924 0.407234 2.44001 -0 0 -2 0.025 0 0 0 0.163625 
639 1 -0.0758688 0.455316 2.42946 -0 0 -2 0.025 0 0 0 0.163625 
679 1 -0.13837 0.180668 2.46896 -0 0 -2 0.015 0 0 0 0.0353429 
684 1 -0.0877228 0.214649 2.45438 -0 0 -2 0.015 0 0 0 0.0353429 
627 1 -0.14504 0.290308 2.45997 -0 0 -2 0.025 0 0 0 0.163625 
745 1 -0.114925 0.311202 2.44156 -0 0 -2 0.015 0 0 0 0.0353429 
603 1 -0.121744 0.345667 2.46485 -0 0 -2 0.025 0 0 0 0.163625 
702 1 -0.149858 0.401742 2.47121 -0 0 -2 0.015 0 0 0 0.0353429 
635 1 -0.142362 0.4734 2.46918 -0 0 -2 0.025 0 0 0 0.163625 
703 1 -0.0877381 0.462891 2.46849 -0 0 -2 0.015 0 0 0 0.0353429 
691 1 -0.0734004 0.189006 2.4771 -0 0 -2 0.015 0 0 0 0.0353429 
740 1 -0.0241674 0.189645 2.49276 -0 0 -2 0.015 0 0 0 0.0353429 
706 1 -0.129002 0.229476 2.47281 -0 0 -2 0.015 0 0 0 0.0353429 
704 1 -0.0317726 0.220718 2.49644 -0 0 -2 0.015 0 0 0 0.0353429 
741 1 -0.142229 0.250235 2.49147 -0 0 -2 0.015 0 0 0 0.0353429 
633 1 -0.0885839 0.256976 2.48402 -0 0 -2 0.025 0 0 0 0.163625 
621 1 -0.0949278 0.379245 2.49308 -0 0 -2 0.025 0 0 0 0.163625 
695 1 -0.0580393 0.404144 2.47555 -0 0 -2 0.015 0 0 0 0.0353429 
651 1 -0.060053 0.444242 2.50043 -0 0 -2 0.025 0 0 0 0.163625 
673 1 -0.0172558 0.429744 2.48168 -0 0 -2 0.015 0 0 0 0.0353429 
728 1 -0.112468 0.204973 2.50641 -0 0 -2 0.015 0 0 0 0.0353429 
667 1 -0.096529 0.23189 2.51818 -0 0 -2 0.015 0 0 0 0.0353429 
617 1 -0.113434 0.299985 2.51131 -0 0 -2 0.025 0 0 0 0.163625 
622 1 -0.140441 0.405087 2.51249 -0 0 -2 0.025 0 0 0 0.163625 
614 1 -0.127167 0.457223 2.5223 -0 0 -2 0.025 0 0 0 0.163625 
731 1 -0.0916629 0.473786 2.50494 -0 0 -2 0.015 0 0 0 0.0353429 
663 1 -0.107061 0.184437 2.53302 -0 0 -2 0.015 0 0 0 0.0353429 
681 1 -0.0616753 0.20667 2.54043 -0 0 -2 0.015 0 0 0 0.0353429 