ITEM: TIMESTEP
35200
ITEM: NUMBER OF ATOMS
600
ITEM: BOX BOUNDS mm mm mm
-1 1
-1 1
-0.05 2.85
ITEM: ATOMS id type x y z vx vy vz radius fx fy fz mass 
68 1 -0.0997213 0.0692714 0.95185 0 -0.5 -5.36498 0.015 0 0 -0.346714 0.0353429 
137 1 -0.0884472 0.116355 0.964889 -0.00924354 -0.479856 -5.34212 0.015 0 0 -0.346714 0.0353429 
45 1 -0.0943793 0.0202376 0.979504 0 -0.5 -5.31416 0.025 0 0 -1.60516 0.163625 
122 1 -0.0701567 0.0769966 0.97991 0.00811842 -0.517403 -5.31254 0.015 0 0 -0.346714 0.0353429 
33 1 -0.129286 0.260605 0.973598 0 -0.5 -5.32505 0.025 0 0 -1.60516 0.163625 
119 1 -0.0370509 0.00918864 1.00802 0 -0.5 -5.26129 0.015 0 0 -0.346714 0.0353429 
75 1 -0.0493142 0.0596721 1.02474 0 -0.5 -5.22999 0.015 0 0 -0.346714 0.0353429 
43 1 -0.116198 0.171785 0.999948 0 -0.5 -5.27629 0.025 0 0 -1.60516 0.163625 
78 1 -0.0422369 0.267955 1.01552 0 -0.5 -5.24726 0.015 0 0 -0.346714 0.0353429 
111 1 -0.0487783 0.3041 1.00053 0 -0.5 -5.27522 0.015 0 0 -0.346714 0.0353429 
89 1 -0.129145 0.0883079 1.03091 0 -0.5 -5.21842 0.015 0 0 -0.346714 0.0353429 
59 1 -0.0865612 0.216868 1.04455 0 -0.5 -5.19271 0.015 0 0 -0.346714 0.0353429 
92 1 -0.131017 0.311327 1.05896 0 -0.5 -5.16544 0.015 0 0 -0.346714 0.0353429 
26 1 -0.0698942 0.1349 1.10182 0.14857 -0.341553 -5.13449 0.025 0 0 -1.60516 0.163625 
98 1 -0.147127 0.160442 1.11198 0 -0.5 -5.06371 0.015 0 0 -0.346714 0.0353429 
151 1 -0.0686397 0.242527 1.11144 0 -0.5 -5.06479 0.015 0 0 -0.346714 0.0353429 
8 1 -0.104188 0.027463 1.12793 0 -0.5 -5.03271 0.025 0 0 -1.60516 0.163625 
3 1 -0.141317 0.225388 1.13523 0 -0.5 -5.01849 0.025 0 0 -1.60516 0.163625 
72 1 -0.105673 0.262796 1.14779 0 -0.5 -4.99386 0.015 0 0 -0.346714 0.0353429 
100 1 -0.0681017 0.095921 1.16586 0 -0.5 -4.95825 0.015 0 0 -0.346714 0.0353429 
140 1 -0.125739 0.137556 1.16134 0 -0.5 -4.96718 0.015 0 0 -0.346714 0.0353429 
118 1 -0.0372647 0.297681 1.17061 0 -0.5 -4.94884 0.015 0 0 -0.346714 0.0353429 
40 1 -0.104474 0.314198 1.16238 0 -0.5 -4.96512 0.025 0 0 -1.60516 0.163625 
51 1 -0.156419 0.0549702 1.2067 -0.0265052 -0.519812 -4.86927 0.025 0 0 -1.60516 0.163625 
117 1 -0.0596227 0.0390208 1.18452 0 -0.5 -4.92117 0.015 0 0 -0.346714 0.0353429 
148 1 -0.155466 0.165989 1.2116 -0.171679 -0.397353 -4.97051 0.015 0 0 -0.346714 0.0353429 
90 1 -0.146535 0.315667 1.23715 0 -0.5 -4.81513 0.015 0 0 -0.346714 0.0353429 
60 1 -0.0770515 0.0479276 1.25489 0 -0.5 -4.77883 0.015 0 0 -0.346714 0.0353429 
11 1 -0.101273 0.204159 1.25186 0.022917 -0.457889 -4.80799 0.025 0 0 -1.60516 0.163625 
50 1 -0.130982 0.272355 1.25619 0 -0.5 -4.77618 0.025 0 0 -1.60516 0.163625 
105 1 -0.167601 0.18916 1.29057 -0.321192 -0.368687 -4.6917 0.015 0 0 -0.346714 0.0353429 
74 1 -0.0790012 0.259893 1.28529 0 -0.5 -4.71605 0.015 0 0 -0.346714 0.0353429 
76 1 -0.0202065 0.28807 1.2985 0 -0.5 -4.68848 0.015 0 0 -0.346714 0.0353429 
44 1 -0.125916 0.0395965 1.30728 0 -0.5 -4.67004 0.025 0 0 -1.60516 0.163625 
36 1 -0.103411 0.0863125 1.32505 0 -0.5 -4.63256 0.025 0 0 -1.60516 0.163625 
29 1 -0.0788351 0.302182 1.32009 0 -0.5 -4.64306 0.025 0 0 -1.60516 0.163625 
114 1 -0.0719947 0.116429 1.3543 -0.00040144 -0.499666 -4.57035 0.015 0 0 -0.346714 0.0353429 
54 1 -0.150461 0.12359 1.34112 -0.0956439 -0.529683 -4.58126 0.015 0 0 -0.346714 0.0353429 
73 1 -0.0639552 0.0657667 1.37909 0 -0.5 -4.51671 0.015 0 0 -0.346714 0.0353429 
2 1 -0.110349 0.213071 1.38378 0 -0.5 -4.5065 0.025 0 0 -1.60516 0.163625 
113 1 -0.118506 0.337198 1.37388 0 -0.5 -4.52799 0.015 0 0 -0.346714 0.0353429 
146 1 -0.109965 0.0529163 1.39738 0 -0.5 -4.47678 0.015 0 0 -0.346714 0.0353429 
57 1 -0.120673 0.169061 1.41947 0 -0.5 -4.42812 0.015 0 0 -0.346714 0.0353429 
88 1 -0.0666498 0.279919 1.41056 0 -0.5 -4.44784 0.015 0 0 -0.346714 0.0353429 
12 1 -0.0363281 0.322336 1.39614 0 -0.5 -4.47953 0.025 0 0 -1.60516 0.163625 
99 1 -0.146283 0.117517 1.42986 0 -0.5 -4.40507 0.015 0 0 -0.346714 0.0353429 
10 1 -0.0811792 0.263039 1.45265 0.0800593 -0.36273 -4.45195 0.025 0 0 -1.60516 0.163625 
66 1 -0.0281121 0.104823 1.46473 0 -0.5 -4.32669 0.015 0 0 -0.346714 0.0353429 
83 1 -0.108229 0.147146 1.45841 0 -0.5 -4.34101 0.015 0 0 -0.346714 0.0353429 
19 1 -0.0715757 0.127252 1.46148 0 -0.5 -4.33404 0.025 0 0 -1.60516 0.163625 
34 1 -0.138562 0.286511 1.45376 0 -0.5 -4.35151 0.025 0 0 -1.60516 0.163625 
81 1 -0.051385 0.287999 1.46784 0 -0.5 -4.31962 0.015 0 0 -0.346714 0.0353429 
71 1 -0.145263 0.330198 1.47152 0 -0.5 -4.31129 0.015 0 0 -0.346714 0.0353429 
24 1 -0.138394 0.0874519 1.49635 0 -0.5 -4.25439 0.025 0 0 -1.60516 0.163625 
67 1 -0.0183057 0.0603887 1.48598 0 -0.5 -4.27823 0.015 0 0 -0.346714 0.0353429 
133 1 -0.127566 0.203944 1.50366 0 -0.5 -4.23751 0.015 0 0 -0.346714 0.0353429 
95 1 -0.10482 0.291312 1.50657 0 -0.5 -4.23074 0.015 0 0 -0.346714 0.0353429 
39 1 -0.0696793 0.34101 1.50667 0 -0.5 -4.23055 0.025 0 0 -1.60516 0.163625 
70 1 -0.107191 0.113924 1.53724 0 -0.5 -4.15903 0.015 0 0 -0.346714 0.0353429 
103 1 -0.135939 0.131722 1.52711 0 -0.5 -4.18287 0.015 0 0 -0.346714 0.0353429 
143 1 -0.11631 0.349682 1.53433 0 -0.5 -4.1659 0.015 0 0 -0.346714 0.0353429 
28 1 -0.0685748 0.0900701 1.55796 0 -0.5 -4.10989 0.025 0 0 -1.60516 0.163625 
97 1 -0.0338223 0.117144 1.55055 0 -0.5 -4.12754 0.015 0 0 -0.346714 0.0353429 
115 1 -0.076478 0.152431 1.55088 0 -0.5 -4.12676 0.015 0 0 -0.346714 0.0353429 
126 1 -0.117365 0.206208 1.57213 -0.0288748 -0.539424 -4.04539 0.015 0 0 -0.346714 0.0353429 
85 1 -0.13789 0.274015 1.55286 0 -0.5 -4.12205 0.015 0 0 -0.346714 0.0353429 
134 1 -0.137197 0.314367 1.56603 0 -0.5 -4.09056 0.015 0 0 -0.346714 0.0353429 
77 1 -0.0297287 0.342749 1.57178 0 -0.5 -4.07673 0.015 0 0 -0.346714 0.0353429 
120 1 -0.148569 0.363261 1.57343 0 -0.5 -4.0728 0.015 0 0 -0.346714 0.0353429 
96 1 -0.131998 0.117081 1.58758 0 -0.5 -4.03857 0.015 0 0 -0.346714 0.0353429 
38 1 -0.121616 0.158188 1.60402 0 -0.5 -3.99844 0.025 0 0 -1.60516 0.163625 
130 1 -0.0642546 0.152441 1.63439 0 -0.5 -3.9232 0.015 0 0 -0.346714 0.0353429 
23 1 -0.134189 0.294519 1.63369 0 -0.5 -3.92497 0.025 0 0 -1.60516 0.163625 
31 1 -0.140814 0.0948773 1.66327 0 -0.5 -3.85031 0.025 0 0 -1.60516 0.163625 
150 1 -0.100106 0.129207 1.65199 0 -0.5 -3.87896 0.015 0 0 -0.346714 0.0353429 
18 1 -0.106015 0.359686 1.65295 0 -0.5 -3.87651 0.025 0 0 -1.60516 0.163625 
4 1 -0.0330873 0.372857 1.65234 0 -0.5 -3.87808 0.025 0 0 -1.60516 0.163625 
110 1 -0.0868918 0.0844165 1.6835 0 -0.5 -3.79842 0.015 0 0 -0.346714 0.0353429 
93 1 -0.0244706 0.0961578 1.69368 0 -0.5 -3.77203 0.015 0 0 -0.346714 0.0353429 
106 1 -0.11869 0.406352 1.69494 -0.0998962 -0.230395 -3.95905 0.015 0 0 -0.346714 0.0353429 
17 1 -0.134634 0.210027 1.6988 0 -0.5 -3.75869 0.025 0 0 -1.60516 0.163625 
136 1 -0.0832352 0.303008 1.69633 0 -0.5 -3.76516 0.015 0 0 -0.346714 0.0353429 
30 1 -0.0481876 0.330857 1.70222 0 -0.5 -3.74976 0.025 0 0 -1.60516 0.163625 
109 1 -0.0676248 0.37808 1.70143 0 -0.5 -3.75182 0.015 0 0 -0.346714 0.0353429 
108 1 -0.089121 0.116824 1.73283 0 -0.5 -3.66883 0.015 0 0 -0.346714 0.0353429 
69 1 -0.020474 0.137083 1.74905 0 -0.5 -3.62517 0.015 0 0 -0.346714 0.0353429 
35 1 -0.146938 0.310792 1.75386 0 -0.5 -3.61213 0.025 0 0 -1.60516 0.163625 
102 1 -0.11709 0.116899 1.77608 0 -0.5 -3.5513 0.015 0 0 -0.346714 0.0353429 
14 1 -0.0571303 0.108975 1.78376 0 -0.5 -3.53002 0.025 0 0 -1.60516 0.163625 
139 1 -0.104092 0.174572 1.77596 0 -0.5 -3.5516 0.015 0 0 -0.346714 0.0353429 
144 1 -0.0691235 0.177474 1.7753 0 -0.5 -3.55346 0.015 0 0 -0.346714 0.0353429 
22 1 -0.102489 0.242306 1.77234 0 -0.5 -3.5616 0.025 0 0 -1.60516 0.163625 
55 1 -0.0959982 0.348396 1.7871 -7.52477e-06 -0.49998 -3.52073 0.015 0 0 -0.346714 0.0353429 
1 1 -0.145327 0.444687 1.75939 -0.021394 -0.0706631 -3.82401 0.025 0 0 -1.60516 0.163625 
141 1 -0.136875 0.190264 1.7942 0 -0.5 -3.50088 0.015 0 0 -0.346714 0.0353429 
149 1 -0.0843626 0.221024 1.81563 0.199959 -0.45766 -3.75877 0.015 0 0 -0.346714 0.0353429 
87 1 -0.113676 0.311588 1.81479 0 -0.5 -3.44271 0.015 0 0 -0.346714 0.0353429 
21 1 -0.0470047 0.3935 1.80444 0 -0.5 -3.47204 0.025 0 0 -1.60516 0.163625 
107 1 -0.141609 0.105948 1.83314 0 -0.5 -3.39003 0.015 0 0 -0.346714 0.0353429 
94 1 -0.163468 0.260246 1.82878 -0.356499 -0.190573 -3.50827 0.015 0 0 -0.346714 0.0353429 
147 1 -0.100309 0.381431 1.84406 0 -0.5 -3.35824 0.015 0 0 -0.346714 0.0353429 
142 1 -0.0724928 0.130748 1.86592 0 -0.5 -3.29379 0.015 0 0 -0.346714 0.0353429 
112 1 -0.073338 0.189279 1.85113 0 -0.5 -3.33754 0.015 0 0 -0.346714 0.0353429 
84 1 -0.116406 0.269786 1.84876 0 -0.5 -3.34451 0.015 0 0 -0.346714 0.0353429 
80 1 -0.102893 0.316893 1.87811 0 -0.5 -3.2573 0.015 0 0 -0.346714 0.0353429 
47 1 -0.140465 0.35345 1.86598 0 -0.5 -3.2936 0.025 0 0 -1.60516 0.163625 
145 1 -0.0934491 0.346113 1.86737 0 -0.5 -3.28948 0.015 0 0 -0.346714 0.0353429 
32 1 -0.157058 0.119579 1.89847 -0.0613285 -0.540948 -3.19003 0.025 0 0 -1.60516 0.163625 
6 1 -0.0970764 0.160792 1.8829 0.101461 -0.428163 -3.25297 0.025 0 0 -1.60516 0.163625 
135 1 -0.140472 0.198893 1.89762 0 -0.5 -3.19795 0.015 0 0 -0.346714 0.0353429 
15 1 -0.0877436 0.255882 1.89532 0.0430154 -0.390763 -3.14577 0.025 0 0 -1.60516 0.163625 
62 1 -0.0849655 0.406406 1.89744 0 -0.5 -3.19854 0.015 0 0 -0.346714 0.0353429 
138 1 -0.0317395 0.133316 1.91033 0 -0.5 -3.15871 0.015 0 0 -0.346714 0.0353429 
128 1 -0.145291 0.283677 1.91144 0 -0.5 -3.15527 0.015 0 0 -0.346714 0.0353429 
121 1 -0.0679495 0.388078 1.92477 0 -0.5 -3.11358 0.015 0 0 -0.346714 0.0353429 
61 1 -0.0231802 0.126935 1.96591 0 -0.5 -2.98115 0.015 0 0 -0.346714 0.0353429 
129 1 -0.0553418 0.157199 1.94899 0 -0.5 -3.03628 0.015 0 0 -0.346714 0.0353429 
79 1 -0.0179342 0.160984 1.96596 0 -0.5 -2.98095 0.015 0 0 -0.346714 0.0353429 
13 1 -0.146779 0.239821 1.95855 0 -0.5 -3.00528 0.025 0 0 -1.60516 0.163625 
101 1 -0.102489 0.249824 1.95589 0 -0.5 -3.01391 0.015 0 0 -0.346714 0.0353429 
91 1 -0.124131 0.346132 1.96626 0 -0.5 -2.97997 0.015 0 0 -0.346714 0.0353429 
37 1 -0.0716655 0.352665 1.95553 0 -0.5 -3.01509 0.025 0 0 -1.60516 0.163625 
46 1 -0.032303 0.414569 1.95894 0 -0.5 -3.004 0.025 0 0 -1.60516 0.163625 
52 1 -0.100497 0.14249 1.97125 0 -0.5 -2.96349 0.015 0 0 -0.346714 0.0353429 
5 1 -0.137704 0.170412 1.97817 0 -0.5 -2.94053 0.025 0 0 -1.60516 0.163625 
7 1 -0.0712578 0.209449 1.98031 0 -0.5 -2.93337 0.025 0 0 -1.60516 0.163625 
20 1 -0.124339 0.297888 1.97602 0 -0.5 -2.9477 0.025 0 0 -1.60516 0.163625 
65 1 -0.147981 0.147097 2.02228 0 -0.5 -2.78946 0.015 0 0 -0.346714 0.0353429 
58 1 -0.0969698 0.243891 2.01367 0 -0.5 -2.81958 0.015 0 0 -0.346714 0.0353429 
86 1 -0.142939 0.339059 2.00271 0 -0.5 -2.85744 0.015 0 0 -0.346714 0.0353429 
124 1 -0.136447 0.369377 2.01359 0 -0.5 -2.81987 0.015 0 0 -0.346714 0.0353429 
9 1 -0.0320364 0.373159 2.00489 0 -0.5 -2.84999 0.025 0 0 -1.60516 0.163625 
41 1 -0.107908 0.424758 2.02067 0 -0.5 -2.79515 0.025 0 0 -1.60516 0.163625 
132 1 -0.0234712 0.180168 2.05682 0 -0.5 -2.66527 0.015 0 0 -0.346714 0.0353429 
48 1 -0.144727 0.237852 2.05633 0 -0.5 -2.66703 0.025 0 0 -1.60516 0.163625 
53 1 -0.106432 0.28234 2.05762 0 -0.5 -2.66232 0.015 0 0 -0.346714 0.0353429 
104 1 -0.138444 0.311217 2.04539 0 -0.5 -2.70696 0.015 0 0 -0.346714 0.0353429 
131 1 -0.025873 0.41204 2.03952 0 -0.5 -2.72815 0.015 0 0 -0.346714 0.0353429 
49 1 -0.0613084 0.15771 2.0687 0 -0.5 -2.62112 0.025 0 0 -1.60516 0.163625 
127 1 -0.0304133 0.203621 2.09015 0 -0.5 -2.5396 0.015 0 0 -0.346714 0.0353429 
16 1 -0.129915 0.381079 2.07057 0 -0.5 -2.61416 0.025 0 0 -1.60516 0.163625 
82 1 -0.0851821 0.371627 2.07435 0 -0.5 -2.59993 0.015 0 0 -0.346714 0.0353429 
27 1 -0.0637137 0.407885 2.07095 0 -0.5 -2.61268 0.025 0 0 -1.60516 0.163625 
63 1 -0.147823 0.437713 2.07988 0 -0.5 -2.57894 0.015 0 0 -0.346714 0.0353429 
56 1 -0.11556 0.435119 2.09006 0 -0.5 -2.53989 0.015 0 0 -0.346714 0.0353429 
25 1 -0.104447 0.191785 2.09675 0 -0.5 -2.51399 0.025 0 0 -1.60516 0.163625 
42 1 -0.132916 0.284796 2.10508 0 -0.5 -2.48123 0.025 0 0 -1.60516 0.163625 
123 1 -0.11925 0.341492 2.10718 0 -0.5 -2.47289 0.015 0 0 -0.346714 0.0353429 
64 1 -0.145219 0.405177 2.11512 0 -0.5 -2.4412 0.015 0 0 -0.346714 0.0353429 
125 1 -0.0960051 0.397127 2.11619 0 -0.5 -2.43699 0.015 0 0 -0.346714 0.0353429 
392 1 -0.0201822 0.155377 2.12456 0 -0.5 -2.40304 0.015 0 0 -0.346714 0.0353429 
361 1 -0.0655065 0.183159 2.12315 0 -0.5 -2.40873 0.015 0 0 -0.346714 0.0353429 
429 1 -0.0132038 0.206343 2.13911 0.187199 -0.301038 -2.44125 0.015 0 0 -0.346714 0.0353429 
375 1 -0.132504 0.220213 2.12843 0 -0.5 -2.38715 0.015 0 0 -0.346714 0.0353429 
353 1 -0.0778865 0.23651 2.13902 0 -0.5 -2.3432 0.015 0 0 -0.346714 0.0353429 
432 1 -0.110656 0.296023 2.1457 0 -0.5 -2.31505 0.015 0 0 -0.346714 0.0353429 
391 1 -0.0665259 0.38219 2.12392 0 -0.5 -2.40559 0.015 0 0 -0.346714 0.0353429 
423 1 -0.035066 0.400352 2.14481 0 -0.5 -2.31887 0.015 0 0 -0.346714 0.0353429 
370 1 -0.0476722 0.454061 2.13901 0 -0.5 -2.3433 0.015 0 0 -0.346714 0.0353429 
449 1 -0.121601 0.16097 2.15165 0 -0.5 -2.28974 0.015 0 0 -0.346714 0.0353429 
348 1 -0.0437677 0.175278 2.16018 -0.0150753 -0.514502 -2.24559 0.025 0 0 -1.60516 0.163625 
409 1 -0.1116 0.268279 2.16469 0 -0.5 -2.23313 0.015 0 0 -0.346714 0.0353429 
304 1 -0.147639 0.394299 2.17722 0 -0.5 -2.17741 0.025 0 0 -1.60516 0.163625 
434 1 -0.110177 0.428235 2.16356 0 -0.5 -2.23814 0.015 0 0 -0.346714 0.0353429 
368 1 -0.0426125 0.206103 2.20098 0 -0.5 -2.06764 0.015 0 0 -0.346714 0.0353429 
328 1 -0.101567 0.23136 2.20832 0 -0.5 -2.03252 0.025 0 0 -1.60516 0.163625 
414 1 -0.12165 0.338412 2.19287 0 -0.5 -2.1057 0.015 0 0 -0.346714 0.0353429 
416 1 -0.148865 0.359752 2.19861 0 -0.5 -2.07882 0.015 0 0 -0.346714 0.0353429 
342 1 -0.0942786 0.382007 2.20886 0 -0.5 -2.02987 0.025 0 0 -1.60516 0.163625 
422 1 -0.0856494 0.422628 2.20016 0 -0.5 -2.07156 0.015 0 0 -0.346714 0.0353429 
327 1 -0.047146 0.431396 2.1904 0 -0.5 -2.11728 0.025 0 0 -1.60516 0.163625 
440 1 -0.074831 0.181528 2.21943 -0 0 -2 0.015 0 0 0 0.0353429 
307 1 -0.141488 0.200316 2.21347 0 -0.5 -2.0075 0.025 0 0 -1.60516 0.163625 
388 1 -0.0545692 0.242431 2.23203 -0 0 -2 0.015 0 0 0 0.0353429 
323 1 -0.131477 0.311783 2.23114 -0 0 -2 0.025 0 0 0 0.163625 
352 1 -0.144025 0.417624 2.22428 -0 0 -2 0.015 0 0 0 0.0353429 
406 1 -0.0920408 0.414471 2.23579 -0 0 -2 0.015 0 0 0 0.0353429 
330 1 -0.125578 0.473218 2.22625 -0 0 -2 0.025 0 0 0 0.163625 
441 1 -0.0895132 0.460957 2.21364 0 -0.5 -2.00662 0.015 0 0 -0.346714 0.0353429 
331 1 -0.138106 0.176551 2.26014 -0 0 -2 0.025 0 0 0 0.163625 
418 1 -0.0554251 0.183195 2.25398 -0 0 -2 0.015 0 0 0 0.0353429 
395 1 -0.110093 0.233322 2.25721 -0 0 -2 0.015 0 0 0 0.0353429 
313 1 -0.0392615 0.218859 2.26634 -0 0 -2 0.025 0 0 0 0.163625 
318 1 -0.126425 0.383688 2.25289 -0 0 -2 0.025 0 0 0 0.163625 
336 1 -0.025747 0.416073 2.25681 -0 0 -2 0.025 0 0 0 0.163625 
374 1 -0.133879 0.440362 2.26743 -0 0 -2 0.015 0 0 0 0.0353429 
377 1 -0.128279 0.19547 2.29602 -0 0 -2 0.015 0 0 0 0.0353429 
315 1 -0.0970947 0.282811 2.27738 -0 0 -2 0.025 0 0 0 0.163625 
445 1 -0.0938501 0.351198 2.28479 -0 0 -2 0.015 0 0 0 0.0353429 
386 1 -0.118095 0.41734 2.29408 -0 0 -2 0.015 0 0 0 0.0353429 
407 1 -0.0713596 0.410324 2.27808 -0 0 -2 0.015 0 0 0 0.0353429 
310 1 -0.0919271 0.448743 2.27601 -0 0 -2 0.025 0 0 0 0.163625 
302 1 -0.0567477 0.188796 2.31308 -0 0 -2 0.025 0 0 0 0.163625 
431 1 -0.13363 0.212461 2.33177 -0 0 -2 0.015 0 0 0 0.0353429 
401 1 -0.0913429 0.220505 2.31211 -0 0 -2 0.015 0 0 0 0.0353429 
355 1 -0.0483468 0.232484 2.32811 -0 0 -2 0.015 0 0 0 0.0353429 
314 1 -0.136534 0.255606 2.31752 -0 0 -2 0.025 0 0 0 0.163625 
439 1 -0.132801 0.307992 2.31062 -0 0 -2 0.015 0 0 0 0.0353429 
344 1 -0.147144 0.347235 2.30384 -0 0 -2 0.025 0 0 0 0.163625 
354 1 -0.0927402 0.400508 2.33097 -0 0 -2 0.015 0 0 0 0.0353429 
413 1 -0.0512121 0.403311 2.32502 -0 0 -2 0.015 0 0 0 0.0353429 
442 1 -0.149932 0.462501 2.32569 -0 0 -2 0.015 0 0 0 0.0353429 
408 1 -0.087028 0.469634 2.33023 -0 0 -2 0.015 0 0 0 0.0353429 
446 1 -0.116317 0.366731 2.34259 -0 0 -2 0.015 0 0 0 0.0353429 
411 1 -0.0485728 0.448156 2.34661 -0 0 -2 0.015 0 0 0 0.0353429 
382 1 -0.111765 0.470126 2.35626 -0 0 -2 0.015 0 0 0 0.0353429 
324 1 -0.0498553 0.178658 2.37519 -0 0 -2 0.025 0 0 0 0.163625 
350 1 -0.147794 0.212625 2.37009 -0 0 -2 0.025 0 0 0 0.163625 
399 1 -0.074527 0.226788 2.36404 -0 0 -2 0.015 0 0 0 0.0353429 
437 1 -0.0723044 0.254202 2.37914 -0 0 -2 0.015 0 0 0 0.0353429 
335 1 -0.126459 0.273678 2.36998 -0 0 -2 0.025 0 0 0 0.163625 
436 1 -0.0854574 0.281776 2.3637 -0 0 -2 0.015 0 0 0 0.0353429 
341 1 -0.148816 0.394703 2.36511 -0 0 -2 0.025 0 0 0 0.163625 
385 1 -0.0696212 0.401745 2.3735 -0 0 -2 0.015 0 0 0 0.0353429 
394 1 -0.145405 0.426519 2.39167 -0 0 -2 0.015 0 0 0 0.0353429 
384 1 -0.142553 0.470858 2.37551 -0 0 -2 0.015 0 0 0 0.0353429 
427 1 -0.116274 0.458291 2.384 -0 0 -2 0.015 0 0 0 0.0353429 
389 1 -0.0230912 0.468001 2.36571 -0 0 -2 0.015 0 0 0 0.0353429 
358 1 -0.127277 0.195217 2.40531 -0 0 -2 0.015 0 0 0 0.0353429 
367 1 -0.106717 0.230156 2.3977 -0 0 -2 0.015 0 0 0 0.0353429 
376 1 -0.0824761 0.237462 2.41625 -0 0 -2 0.015 0 0 0 0.0353429 
326 1 -0.145564 0.324649 2.40623 -0 0 -2 0.025 0 0 0 0.163625 
424 1 -0.118548 0.427887 2.40649 -0 0 -2 0.015 0 0 0 0.0353429 
319 1 -0.0687817 0.474805 2.40388 -0 0 -2 0.025 0 0 0 0.163625 
426 1 -0.0179373 0.455344 2.39749 -0 0 -2 0.015 0 0 0 0.0353429 
433 1 -0.118613 0.17501 2.42962 -0 0 -2 0.015 0 0 0 0.0353429 
420 1 -0.037203 0.182681 2.4316 -0 0 -2 0.015 0 0 0 0.0353429 
402 1 -0.101682 0.217667 2.43349 -0 0 -2 0.015 0 0 0 0.0353429 
363 1 -0.0911777 0.291602 2.44591 -0 0 -2 0.015 0 0 0 0.0353429 
360 1 -0.116599 0.315716 2.44504 -0 0 -2 0.015 0 0 0 0.0353429 
306 1 -0.116739 0.395569 2.43287 -0 0 -2 0.025 0 0 0 0.163625 
397 1 -0.0557758 0.403383 2.44794 -0 0 -2 0.015 0 0 0 0.0353429 
371 1 -0.0449321 0.442824 2.44413 -0 0 -2 0.015 0 0 0 0.0353429 
412 1 -0.0937388 0.465344 2.43597 -0 0 -2 0.015 0 0 0 0.0353429 
322 1 -0.131733 0.197689 2.46251 -0 0 -2 0.025 0 0 0 0.163625 
308 1 -0.0755208 0.211588 2.48133 -0 0 -2 0.025 0 0 0 0.163625 
398 1 -0.0484497 0.240461 2.47525 -0 0 -2 0.015 0 0 0 0.0353429 
438 1 -0.0987495 0.291508 2.48231 -0 0 -2 0.015 0 0 0 0.0353429 
373 1 -0.136858 0.343079 2.46744 -0 0 -2 0.015 0 0 0 0.0353429 
396 1 -0.0958984 0.364505 2.46364 -0 0 -2 0.015 0 0 0 0.0353429 
369 1 -0.138958 0.401078 2.46895 -0 0 -2 0.015 0 0 0 0.0353429 
383 1 -0.0262689 0.419173 2.46954 -0 0 -2 0.015 0 0 0 0.0353429 
381 1 -0.0827007 0.433694 2.4607 -0 0 -2 0.015 0 0 0 0.0353429 
415 1 -0.127182 0.240475 2.49363 -0 0 -2 0.015 0 0 0 0.0353429 
343 1 -0.140775 0.298259 2.49758 -0 0 -2 0.025 0 0 0 0.163625 
356 1 -0.111476 0.333774 2.48617 -0 0 -2 0.015 0 0 0 0.0353429 
443 1 -0.0906469 0.387283 2.4925 -0 0 -2 0.015 0 0 0 0.0353429 
349 1 -0.116564 0.417399 2.49979 -0 0 -2 0.025 0 0 0 0.163625 
351 1 -0.0409452 0.415267 2.50239 -0 0 -2 0.015 0 0 0 0.0353429 
340 1 -0.149237 0.461517 2.48589 -0 0 -2 0.025 0 0 0 0.163625 
390 1 -0.0988461 0.19568 2.51464 -0 0 -2 0.015 0 0 0 0.0353429 
448 1 -0.0329565 0.20149 2.52732 -0 0 -2 0.015 0 0 0 0.0353429 
347 1 -0.0548177 0.23798 2.53065 -0 0 -2 0.025 0 0 0 0.163625 
362 1 -0.0154426 0.229504 2.54342 -0 0 -2 0.015 0 0 0 0.0353429 
378 1 -0.121409 0.285313 2.53455 -0 0 -2 0.015 0 0 0 0.0353429 
312 1 -0.134707 0.344673 2.5352 -0 0 -2 0.025 0 0 0 0.163625 
359 1 -0.107325 0.388274 2.53951 -0 0 -2 0.015 0 0 0 0.0353429 
303 1 -0.0551599 0.406314 2.54367 -0 0 -2 0.025 0 0 0 0.163625 
417 1 -0.0160313 0.444009 2.53519 -0 0 -2 0.015 0 0 0 0.0353429 
346 1 -0.149998 0.46436 2.54009 -0 0 -2 0.025 0 0 0 0.163625 
419 1 -0.111609 0.178994 2.54511 -0 0 -2 0.015 0 0 0 0.0353429 
421 1 -0.0930175 0.256927 2.55348 -0 0 -2 0.015 0 0 0 0.0353429 
365 1 -0.146907 0.425762 2.55802 -0 0 -2 0.015 0 0 0 0.0353429 
334 1 -0.103439 0.440728 2.5499 -0 0 -2 0.025 0 0 0 0.163625 
309 1 -0.144284 0.205271 2.59406 -0 0 -2 0.025 0 0 0 0.163625 
320 1 -0.0648735 0.208579 2.5844 -0 0 -2 0.025 0 0 0 0.163625 
430 1 -0.123083 0.250988 2.60062 -0 0 -2 0.015 0 0 0 0.0353429 
403 1 -0.0833248 0.256507 2.60257 -0 0 -2 0.015 0 0 0 0.0353429 
325 1 -0.117824 0.294875 2.57562 -0 0 -2 0.025 0 0 0 0.163625 
372 1 -0.0702168 0.391047 2.58778 -0 0 -2 0.015 0 0 0 0.0353429 
387 1 -0.0901615 0.367162 2.59618 -0 0 -2 0.015 0 0 0 0.0353429 
447 1 -0.122284 0.473304 2.58495 -0 0 -2 0.015 0 0 0 0.0353429 
338 1 -0.0583644 0.458496 2.59525 -0 0 -2 0.025 0 0 0 0.163625 
316 1 -0.0983119 0.181261 2.63441 -0 0 -2 0.025 0 0 0 0.163625 
379 1 -0.0327871 0.203074 2.61203 -0 0 -2 0.015 0 0 0 0.0353429 
357 1 -0.0584785 0.247404 2.63025 -0 0 -2 0.015 0 0 0 0.0353429 
301 1 -0.0884221 0.421264 2.63536 -0 0 -2 0.025 0 0 0 0.163625 
393 1 -0.015571 0.425619 2.60966 -0 0 -2 0.015 0 0 0 0.0353429 
329 1 -0.123479 0.457221 2.63285 -0 0 -2 0.025 0 0 0 0.163625 
364 1 -0.0453235 0.209912 2.64259 -0 0 -2 0.015 0 0 0 0.0353429 
321 1 -0.126579 0.250186 2.64326 -0 0 -2 0.025 0 0 0 0.163625 
410 1 -0.145474 0.298701 2.64635 -0 0 -2 0.015 0 0 0 0.0353429 
333 1 -0.0978849 0.312107 2.64392 -0 0 -2 0.025 0 0 0 0.163625 
380 1 -0.127355 0.355901 2.63931 -0 0 -2 0.015 0 0 0 0.0353429 
337 1 -0.142368 0.393123 2.65388 -0 0 -2 0.025 0 0 0 0.163625 
428 1 -0.0387226 0.430102 2.63862 -0 0 -2 0.015 0 0 0 0.0353429 
450 1 -0.0322061 0.474788 2.63945 -0 0 -2 0.015 0 0 0 0.0353429 
425 1 -0.074083 0.175677 2.69145 -0 0 -2 0.015 0 0 0 0.0353429 
332 1 -0.0814262 0.231721 2.68118 -0 0 -2 0.025 0 0 0 0.163625 
400 1 -0.135353 0.274705 2.68382 -0 0 -2 0.015 0 0 0 0.0353429 
366 1 -0.144217 0.391047 2.69491 -0 0 -2 0.015 0 0 0 0.0353429 
339 1 -0.0802774 0.437645 2.69107 -0 0 -2 0.025 0 0 0 0.163625 
305 1 -0.0452536 0.474362 2.69145 -0 0 -2 0.025 0 0 0 0.163625 
404 1 -0.119976 0.192749 2.70739 -0 0 -2 0.015 0 0 0 0.0353429 
311 1 -0.0354402 0.189328 2.69916 -0 0 -2 0.025 0 0 0 0.163625 
345 1 -0.128178 0.236209 2.70486 -0 0 -2 0.025 0 0 0 0.163625 
435 1 -0.0960728 0.272801 2.70772 -0 0 -2 0.015 0 0 0 0.0353429 
317 1 -0.129905 0.313645 2.69665 -0 0 -2 0.025 0 0 0 0.163625 
405 1 -0.038992 0.42438 2.69904 -0 0 -2 0.015 0 0 0 0.0353429 
444 1 -0.0159467 0.465681 2.7196 -0 0 -2 0.015 0 0 0 0.0353429 
289 1 0.0988075 0.246704 0.829232 0.0203384 -0.134604 -5.74327 0.015 0 0 -0.346714 0.0353429 
284 1 0.0702354 0.0157521 0.94212 -0.0310215 -0.613333 -5.43799 0.015 0 0 -0.346714 0.0353429 
203 1 0.0667127 0.00723277 0.977016 0 -0.5 -5.31877 0.015 0 0 -0.346714 0.0353429 
206 1 0.0989831 0.0453928 0.976102 0.057048 -0.582454 -5.36245 0.015 0 0 -0.346714 0.0353429 
237 1 0.12838 0.0722763 0.998384 0.0724848 -0.475593 -5.26745 0.015 0 0 -0.346714 0.0353429 
199 1 0.0899046 0.159185 0.973705 -0.00278668 -0.321029 -5.41493 0.025 0 0 -1.60516 0.163625 
214 1 0.144386 0.193733 0.986883 0 -0.5 -5.30053 0.015 0 0 -0.346714 0.0353429 
213 1 0.0350777 0.24657 0.977162 0 -0.5 -5.31848 0.015 0 0 -0.346714 0.0353429 
226 1 0.110692 0.255304 0.997583 0 -0.5 -5.28071 0.015 0 0 -0.346714 0.0353429 
272 1 0.0168276 0.281548 0.972281 0 -0.5 -5.3275 0.015 0 0 -0.346714 0.0353429 
241 1 0.0849537 0.277018 0.991603 0 -0.5 -5.29179 0.015 0 0 -0.346714 0.0353429 
259 1 0.149131 0.0478265 1.00338 0 -0.5 -5.26992 0.015 0 0 -0.346714 0.0353429 
263 1 0.025742 0.0684937 1.01567 0 -0.5 -5.24696 0.015 0 0 -0.346714 0.0353429 
171 1 0.0955264 0.209107 1.0027 0 -0.5 -5.27119 0.025 0 0 -1.60516 0.163625 
220 1 0.0183217 0.02413 1.04466 -0.0669262 -0.554313 -5.18475 0.015 0 0 -0.346714 0.0353429 
116 1 0.0185123 0.16603 1.03876 0.36535 -0.287166 -5.3032 0.015 0 0 -0.346714 0.0353429 
177 1 0.158031 0.178888 1.04391 0.112606 -0.398162 -5.19976 0.025 0 0 -1.60516 0.163625 
290 1 0.14975 0.236416 1.08502 0.0439512 -0.299137 -5.0734 0.015 0 0 -0.346714 0.0353429 
166 1 0.0609489 0.311253 1.0864 0 -0.5 -5.11306 0.025 0 0 -1.60516 0.163625 
184 1 0.11251 0.309841 1.08019 0 -0.5 -5.12493 0.025 0 0 -1.60516 0.163625 
270 1 0.0946744 0.239669 1.11684 0 -0.5 -5.05429 0.015 0 0 -0.346714 0.0353429 
249 1 0.0491797 0.247421 1.10351 0 -0.5 -5.08009 0.015 0 0 -0.346714 0.0353429 
216 1 0.0897203 0.0442901 1.14404 0.0481324 -0.610657 -4.97713 0.015 0 0 -0.346714 0.0353429 
222 1 0.123753 0.0496614 1.13687 0 -0.5 -5.01525 0.015 0 0 -0.346714 0.0353429 
294 1 0.128315 0.272152 1.13266 0 -0.5 -5.02349 0.015 0 0 -0.346714 0.0353429 
180 1 0.0389161 0.0653355 1.17533 -0.021889 -0.504465 -4.93254 0.025 0 0 -1.60516 0.163625 
253 1 0.123075 0.157069 1.17817 0 -0.5 -4.93383 0.015 0 0 -0.346714 0.0353429 
170 1 0.179929 0.234405 1.15957 0.161731 -0.381986 -4.98683 0.025 0 0 -1.60516 0.163625 
231 1 0.0350342 0.26962 1.1725 0 -0.5 -4.94511 0.015 0 0 -0.346714 0.0353429 
282 1 0.0230803 0.126941 1.20848 -0.2609 -0.673185 -4.84909 0.015 0 0 -0.346714 0.0353429 
169 1 0.0892107 0.278668 1.19475 0 -0.5 -4.90077 0.025 0 0 -1.60516 0.163625 
209 1 0.0969746 0.0452476 1.22334 0 -0.5 -4.84318 0.015 0 0 -0.346714 0.0353429 
278 1 0.113612 0.179965 1.2571 0 -0.5 -4.77432 0.015 0 0 -0.346714 0.0353429 
296 1 0.146983 0.161001 1.25891 0 -0.5 -4.77059 0.015 0 0 -0.346714 0.0353429 
257 1 0.139837 0.292641 1.25758 0 -0.5 -4.77334 0.015 0 0 -0.346714 0.0353429 
168 1 0.0261487 0.0821037 1.29719 0 -0.5 -4.69123 0.025 0 0 -1.60516 0.163625 
269 1 0.141487 0.0775043 1.29436 0 -0.5 -4.69711 0.015 0 0 -0.346714 0.0353429 
162 1 0.0478022 0.282457 1.28934 0 -0.5 -4.70761 0.025 0 0 -1.60516 0.163625 
235 1 0.134937 0.0483847 1.30906 0 -0.5 -4.66631 0.015 0 0 -0.346714 0.0353429 
185 1 0.0936576 0.126666 1.31583 0 -0.5 -4.65208 0.025 0 0 -1.60516 0.163625 
217 1 0.133752 0.127691 1.30757 0 -0.5 -4.66945 0.015 0 0 -0.346714 0.0353429 
182 1 0.114565 0.237779 1.30384 0 -0.5 -4.6773 0.025 0 0 -1.60516 0.163625 
286 1 0.147755 0.32687 1.30654 0 -0.5 -4.67161 0.015 0 0 -0.346714 0.0353429 
176 1 0.0399362 0.334472 1.30766 0 -0.5 -4.66925 0.025 0 0 -1.60516 0.163625 
153 1 0.0895866 0.0427598 1.34024 0 -0.5 -4.60029 0.025 0 0 -1.60516 0.163625 
211 1 0.0694768 0.100972 1.35953 0 -0.5 -4.55899 0.015 0 0 -0.346714 0.0353429 
251 1 0.126174 0.195559 1.3529 0 -0.5 -4.57321 0.015 0 0 -0.346714 0.0353429 
291 1 0.140432 0.271523 1.37411 0 -0.5 -4.5275 0.015 0 0 -0.346714 0.0353429 
159 1 0.087245 0.330208 1.37543 0 -0.5 -4.52465 0.025 0 0 -1.60516 0.163625 
300 1 0.149285 0.32424 1.38806 0 -0.5 -4.49718 0.015 0 0 -0.346714 0.0353429 
204 1 0.134881 0.0892481 1.39801 0 -0.5 -4.47541 0.015 0 0 -0.346714 0.0353429 
161 1 0.135356 0.14685 1.39699 0 -0.5 -4.47766 0.025 0 0 -1.60516 0.163625 
230 1 0.118982 0.187372 1.41429 0 -0.5 -4.4396 0.015 0 0 -0.346714 0.0353429 
228 1 0.0279693 0.296593 1.40486 0 -0.5 -4.4604 0.015 0 0 -0.346714 0.0353429 
175 1 0.0941494 0.0820588 1.43346 0 -0.5 -4.39702 0.025 0 0 -1.60516 0.163625 
256 1 0.0868225 0.314057 1.4534 0 -0.5 -4.35229 0.015 0 0 -0.346714 0.0353429 
250 1 0.138716 0.328193 1.45079 0 -0.5 -4.35818 0.015 0 0 -0.346714 0.0353429 
299 1 0.0153001 0.105541 1.47448 0 -0.5 -4.30452 0.015 0 0 -0.346714 0.0353429 
293 1 0.0548164 0.121145 1.46664 0 -0.5 -4.32237 0.015 0 0 -0.346714 0.0353429 
192 1 0.134392 0.245049 1.45715 0 -0.5 -4.34385 0.025 0 0 -1.60516 0.163625 
285 1 0.0870748 0.282259 1.4588 0 -0.5 -4.34013 0.015 0 0 -0.346714 0.0353429 
275 1 0.0211058 0.328962 1.47276 0 -0.5 -4.30844 0.015 0 0 -0.346714 0.0353429 
246 1 0.0494565 0.34901 1.45954 0 -0.5 -4.33846 0.015 0 0 -0.346714 0.0353429 
240 1 0.0956629 0.34588 1.46187 0 -0.5 -4.33316 0.015 0 0 -0.346714 0.0353429 
202 1 0.126943 0.0801189 1.50331 0 -0.5 -4.2383 0.015 0 0 -0.346714 0.0353429 
245 1 0.0868358 0.105715 1.51405 0 -0.5 -4.21338 0.015 0 0 -0.346714 0.0353429 
200 1 0.112803 0.138149 1.4907 0 -0.5 -4.26743 0.025 0 0 -1.60516 0.163625 
255 1 0.0340792 0.296865 1.49686 0 -0.5 -4.25321 0.015 0 0 -0.346714 0.0353429 
252 1 0.131256 0.305424 1.49686 0 -0.5 -4.25321 0.015 0 0 -0.346714 0.0353429 
189 1 0.0509787 0.079512 1.53792 0 -0.5 -4.15746 0.025 0 0 -1.60516 0.163625 
247 1 0.0532922 0.133565 1.53141 0 -0.5 -4.17277 0.015 0 0 -0.346714 0.0353429 
287 1 0.130384 0.0703502 1.56673 0 -0.5 -4.08889 0.015 0 0 -0.346714 0.0353429 
154 1 0.116388 0.225122 1.55004 0 -0.5 -4.12872 0.025 0 0 -1.60516 0.163625 
190 1 0.11779 0.338732 1.55955 0 -0.5 -4.10606 0.025 0 0 -1.60516 0.163625 
288 1 0.0326968 0.115446 1.57701 0 -0.5 -4.06417 0.015 0 0 -0.346714 0.0353429 
165 1 0.148355 0.168191 1.60462 0 -0.5 -3.99697 0.025 0 0 -1.60516 0.163625 
295 1 0.103955 0.284828 1.58012 0 -0.5 -4.05662 0.015 0 0 -0.346714 0.0353429 
156 1 0.0411221 0.333187 1.58261 0 -0.5 -4.05063 0.025 0 0 -1.60516 0.163625 
210 1 0.0872868 0.0773864 1.60824 0 -0.5 -3.98805 0.015 0 0 -0.346714 0.0353429 
181 1 0.070397 0.116344 1.61589 0 -0.5 -3.96921 0.025 0 0 -1.60516 0.163625 
233 1 0.0406697 0.0952917 1.65767 0 -0.5 -3.86454 0.015 0 0 -0.346714 0.0353429 
260 1 0.0198171 0.12512 1.64448 0 -0.5 -3.89789 0.015 0 0 -0.346714 0.0353429 
152 1 0.089118 0.183144 1.63753 0 -0.5 -3.91535 0.025 0 0 -1.60516 0.163625 
279 1 0.11959 0.243322 1.64659 0 -0.5 -3.89259 0.015 0 0 -0.346714 0.0353429 
262 1 0.0888361 0.277008 1.65276 0 -0.5 -3.877 0.015 0 0 -0.346714 0.0353429 
234 1 0.0945525 0.326871 1.64767 0 -0.5 -3.88985 0.015 0 0 -0.346714 0.0353429 
208 1 0.0680799 0.363251 1.65412 0 -0.5 -3.87356 0.015 0 0 -0.346714 0.0353429 
207 1 0.128901 0.294384 1.67073 0 -0.5 -3.83128 0.015 0 0 -0.346714 0.0353429 
194 1 0.131621 0.354036 1.66785 0 -0.5 -3.83864 0.025 0 0 -1.60516 0.163625 
223 1 0.0343911 0.376571 1.68578 0 -0.5 -3.79253 0.015 0 0 -0.346714 0.0353429 
212 1 0.0737637 0.108983 1.7131 0 -0.5 -3.72121 0.015 0 0 -0.346714 0.0353429 
236 1 0.111584 0.122462 1.71313 0 -0.5 -3.72112 0.015 0 0 -0.346714 0.0353429 
191 1 0.0609008 0.323599 1.7167 0 -0.5 -3.7117 0.025 0 0 -1.60516 0.163625 
178 1 0.0370442 0.093146 1.74507 0 -0.5 -3.63596 0.025 0 0 -1.60516 0.163625 
224 1 0.132465 0.151362 1.7452 0 -0.5 -3.63557 0.015 0 0 -0.346714 0.0353429 
221 1 0.0987988 0.188271 1.75369 0 -0.5 -3.61262 0.015 0 0 -0.346714 0.0353429 