ITEM: TIMESTEP
42400
ITEM: NUMBER OF ATOMS
600
ITEM: BOX BOUNDS mm mm mm
-1 1
-1 1
-0.05 2.85
ITEM: ATOMS id type x y z vx vy vz radius fx fy fz mass 
68 1 -0.0997213 0.0332714 0.540144 0 -0.5 -6.0713 0.015 0 0 -0.346714 0.0353429 
137 1 -0.0891127 0.0818054 0.554829 -0.00924354 -0.479856 -6.04844 0.015 0 0 -0.346714 0.0353429 
45 1 -0.0943793 -0.0157624 0.571457 0 -0.5 -6.02048 0.025 0 0 -1.60516 0.163625 
122 1 -0.0695721 0.0397436 0.57198 0.00811842 -0.517403 -6.01886 0.015 0 0 -0.346714 0.0353429 
33 1 -0.129286 0.224605 0.564767 0 -0.5 -6.03137 0.025 0 0 -1.60516 0.163625 
119 1 -0.0370509 -0.0268114 0.603778 0 -0.5 -5.96761 0.015 0 0 -0.346714 0.0353429 
43 1 -0.116198 0.135785 0.594627 0 -0.5 -5.98261 0.025 0 0 -1.60516 0.163625 
78 1 -0.0422369 0.231955 0.61229 0 -0.5 -5.95358 0.015 0 0 -0.346714 0.0353429 
111 1 -0.0487783 0.2681 0.595282 0 -0.5 -5.98154 0.015 0 0 -0.346714 0.0353429 
75 1 -0.0493142 0.0236721 0.622749 0 -0.5 -5.93631 0.015 0 0 -0.346714 0.0353429 
89 1 -0.129145 0.0523079 0.629756 0 -0.5 -5.92474 0.015 0 0 -0.346714 0.0353429 
59 1 -0.0865612 0.180868 0.645243 0 -0.5 -5.89903 0.015 0 0 -0.346714 0.0353429 
92 1 -0.131017 0.275327 0.661616 0 -0.5 -5.87176 0.015 0 0 -0.346714 0.0353429 
26 1 -0.0591972 0.110308 0.70671 0.14857 -0.341553 -5.84081 0.025 0 0 -1.60516 0.163625 
8 1 -0.104188 -0.00853702 0.740143 0 -0.5 -5.73903 0.025 0 0 -1.60516 0.163625 
98 1 -0.147127 0.124442 0.721968 0 -0.5 -5.77003 0.015 0 0 -0.346714 0.0353429 
151 1 -0.0686397 0.206527 0.721344 0 -0.5 -5.77111 0.015 0 0 -0.346714 0.0353429 
3 1 -0.141317 0.189388 0.748473 0 -0.5 -5.72481 0.025 0 0 -1.60516 0.163625 
72 1 -0.105673 0.226796 0.762801 0 -0.5 -5.70018 0.015 0 0 -0.346714 0.0353429 
100 1 -0.0681017 0.059921 0.783439 0 -0.5 -5.66457 0.015 0 0 -0.346714 0.0353429 
140 1 -0.125739 0.101556 0.778276 0 -0.5 -5.6735 0.015 0 0 -0.346714 0.0353429 
118 1 -0.0372647 0.261681 0.788868 0 -0.5 -5.65516 0.015 0 0 -0.346714 0.0353429 
40 1 -0.104474 0.278198 0.779461 0 -0.5 -5.67144 0.025 0 0 -1.60516 0.163625 
51 1 -0.158327 0.0175437 0.830684 -0.0265052 -0.519812 -5.57559 0.025 0 0 -1.60516 0.163625 
117 1 -0.0596227 0.00302084 0.804773 0 -0.5 -5.62749 0.015 0 0 -0.346714 0.0353429 
148 1 -0.167827 0.13738 0.828292 -0.171679 -0.397353 -5.67683 0.015 0 0 -0.346714 0.0353429 
60 1 -0.0770515 0.0119276 0.885385 0 -0.5 -5.48515 0.015 0 0 -0.346714 0.0353429 
11 1 -0.0996229 0.171191 0.880253 0.022917 -0.457889 -5.51431 0.025 0 0 -1.60516 0.163625 
50 1 -0.130982 0.236355 0.886873 0 -0.5 -5.4825 0.025 0 0 -1.60516 0.163625 
90 1 -0.146535 0.279667 0.865033 0 -0.5 -5.52145 0.015 0 0 -0.346714 0.0353429 
74 1 -0.0790012 0.223893 0.920305 0 -0.5 -5.42237 0.015 0 0 -0.346714 0.0353429 
44 1 -0.125916 0.00359652 0.945613 0 -0.5 -5.37636 0.025 0 0 -1.60516 0.163625 
105 1 -0.190727 0.162615 0.927338 -0.321192 -0.368687 -5.39802 0.015 0 0 -0.346714 0.0353429 
76 1 -0.0202065 0.25207 0.935497 0 -0.5 -5.3948 0.015 0 0 -0.346714 0.0353429 
36 1 -0.103411 0.0503125 0.966078 0 -0.5 -5.33888 0.025 0 0 -1.60516 0.163625 
54 1 -0.157347 0.0854532 0.985838 -0.0956439 -0.529683 -5.28758 0.015 0 0 -0.346714 0.0353429 
29 1 -0.0788351 0.266182 0.960362 0 -0.5 -5.34938 0.025 0 0 -1.60516 0.163625 
114 1 -0.0720236 0.0804532 0.999811 -0.00040144 -0.499666 -5.27667 0.015 0 0 -0.346714 0.0353429 
73 1 -0.0639552 0.0297667 1.02846 0 -0.5 -5.22303 0.015 0 0 -0.346714 0.0353429 
2 1 -0.110349 0.177071 1.03388 0 -0.5 -5.21282 0.025 0 0 -1.60516 0.163625 
113 1 -0.118506 0.301198 1.02244 0 -0.5 -5.23431 0.015 0 0 -0.346714 0.0353429 
146 1 -0.109965 0.0169163 1.04963 0 -0.5 -5.1831 0.015 0 0 -0.346714 0.0353429 
57 1 -0.120673 0.133061 1.07521 0 -0.5 -5.13444 0.015 0 0 -0.346714 0.0353429 
88 1 -0.0666498 0.243919 1.06489 0 -0.5 -5.15416 0.015 0 0 -0.346714 0.0353429 
12 1 -0.0363281 0.286336 1.04819 0 -0.5 -5.18585 0.025 0 0 -1.60516 0.163625 
99 1 -0.146283 0.0815171 1.08726 0 -0.5 -5.11139 0.015 0 0 -0.346714 0.0353429 
10 1 -0.0761954 0.236297 1.10622 0.0635655 -0.375939 -5.16808 0.025 0 0 -1.60516 0.163625 
66 1 -0.0281121 0.0688228 1.12778 0 -0.5 -5.03301 0.015 0 0 -0.346714 0.0353429 
83 1 -0.108229 0.111146 1.12043 0 -0.5 -5.04733 0.015 0 0 -0.346714 0.0353429 
19 1 -0.0715757 0.0912524 1.124 0 -0.5 -5.04036 0.025 0 0 -1.60516 0.163625 
34 1 -0.138562 0.250511 1.11502 0 -0.5 -5.05783 0.025 0 0 -1.60516 0.163625 
81 1 -0.0477718 0.254893 1.13355 0.07636 -0.438847 -4.98052 0.015 0 0 -0.346714 0.0353429 
71 1 -0.145263 0.294198 1.13568 0 -0.5 -5.01761 0.015 0 0 -0.346714 0.0353429 
67 1 -0.0183057 0.0243887 1.15252 0 -0.5 -4.98455 0.015 0 0 -0.346714 0.0353429 
24 1 -0.138394 0.0514519 1.16461 0 -0.5 -4.96071 0.025 0 0 -1.60516 0.163625 
133 1 -0.127566 0.167944 1.17313 0 -0.5 -4.94383 0.015 0 0 -0.346714 0.0353429 
95 1 -0.10482 0.255312 1.17653 0 -0.5 -4.93706 0.015 0 0 -0.346714 0.0353429 
39 1 -0.0696793 0.30501 1.17664 0 -0.5 -4.93687 0.025 0 0 -1.60516 0.163625 
70 1 -0.107191 0.0779244 1.21236 0 -0.5 -4.86535 0.015 0 0 -0.346714 0.0353429 
97 1 -0.0338223 0.081144 1.22794 0 -0.5 -4.83386 0.015 0 0 -0.346714 0.0353429 
103 1 -0.135939 0.0957223 1.20051 0 -0.5 -4.88919 0.015 0 0 -0.346714 0.0353429 
115 1 -0.076478 0.116431 1.22833 0 -0.5 -4.83308 0.015 0 0 -0.346714 0.0353429 
143 1 -0.11631 0.313682 1.20896 0 -0.5 -4.87222 0.015 0 0 -0.346714 0.0353429 
28 1 -0.0685748 0.0540701 1.23662 0 -0.5 -4.81621 0.025 0 0 -1.60516 0.163625 
126 1 -0.119444 0.167369 1.25544 -0.0288748 -0.539424 -4.75171 0.015 0 0 -0.346714 0.0353429 
85 1 -0.13789 0.238015 1.23064 0 -0.5 -4.82837 0.015 0 0 -0.346714 0.0353429 
134 1 -0.137197 0.278367 1.24608 0 -0.5 -4.79688 0.015 0 0 -0.346714 0.0353429 
120 1 -0.148569 0.327261 1.25476 0 -0.5 -4.77912 0.015 0 0 -0.346714 0.0353429 
77 1 -0.0297287 0.306749 1.25283 0 -0.5 -4.78305 0.015 0 0 -0.346714 0.0353429 
96 1 -0.131998 0.0810814 1.27138 0 -0.5 -4.74489 0.015 0 0 -0.346714 0.0353429 
38 1 -0.121616 0.122188 1.2907 0 -0.5 -4.70476 0.025 0 0 -1.60516 0.163625 
150 1 -0.100106 0.0932069 1.34728 0 -0.5 -4.58528 0.015 0 0 -0.346714 0.0353429 
130 1 -0.0642546 0.116441 1.32649 0 -0.5 -4.62952 0.015 0 0 -0.346714 0.0353429 
23 1 -0.134189 0.258519 1.32567 0 -0.5 -4.63129 0.025 0 0 -1.60516 0.163625 
18 1 -0.106015 0.323686 1.34841 0 -0.5 -4.58283 0.025 0 0 -1.60516 0.163625 
4 1 -0.0330873 0.336857 1.34769 0 -0.5 -4.5844 0.025 0 0 -1.60516 0.163625 
31 1 -0.140814 0.0588773 1.36062 0 -0.5 -4.55663 0.025 0 0 -1.60516 0.163625 
110 1 -0.0868918 0.0484165 1.38459 0 -0.5 -4.50474 0.015 0 0 -0.346714 0.0353429 
93 1 -0.0244706 0.0601578 1.39667 0 -0.5 -4.47835 0.015 0 0 -0.346714 0.0353429 
17 1 -0.134634 0.174027 1.40275 0 -0.5 -4.46501 0.025 0 0 -1.60516 0.163625 
136 1 -0.0832352 0.267008 1.39981 0 -0.5 -4.47148 0.015 0 0 -0.346714 0.0353429 
30 1 -0.0481876 0.294857 1.40681 0 -0.5 -4.45608 0.025 0 0 -1.60516 0.163625 
109 1 -0.0676248 0.34208 1.40587 0 -0.5 -4.45814 0.015 0 0 -0.346714 0.0353429 
106 1 -0.125882 0.389763 1.38446 -0.0998962 -0.230395 -4.66537 0.015 0 0 -0.346714 0.0353429 
108 1 -0.089121 0.0808235 1.44325 0 -0.5 -4.37515 0.015 0 0 -0.346714 0.0353429 
69 1 -0.020474 0.101083 1.46261 0 -0.5 -4.33149 0.015 0 0 -0.346714 0.0353429 
35 1 -0.146938 0.274792 1.46836 0 -0.5 -4.31845 0.025 0 0 -1.60516 0.163625 
1 1 -0.146868 0.4396 1.45864 -0.021394 -0.0706631 -4.53033 0.025 0 0 -1.60516 0.163625 
102 1 -0.11709 0.0808995 1.49496 0 -0.5 -4.25762 0.015 0 0 -0.346714 0.0353429 
139 1 -0.104092 0.138572 1.49482 0 -0.5 -4.25792 0.015 0 0 -0.346714 0.0353429 
144 1 -0.0691235 0.141474 1.49402 0 -0.5 -4.25978 0.015 0 0 -0.346714 0.0353429 
22 1 -0.102489 0.206306 1.49048 0 -0.5 -4.26792 0.025 0 0 -1.60516 0.163625 
14 1 -0.0571303 0.0729755 1.50417 0 -0.5 -4.23634 0.025 0 0 -1.60516 0.163625 
141 1 -0.136875 0.154264 1.51671 0 -0.5 -4.2072 0.015 0 0 -0.346714 0.0353429 
149 1 -0.0699656 0.188072 1.51958 0.199959 -0.45766 -4.46509 0.015 0 0 -0.346714 0.0353429 
55 1 -0.0959988 0.312397 1.50818 -7.52477e-06 -0.49998 -4.22705 0.015 0 0 -0.346714 0.0353429 
21 1 -0.0470047 0.3575 1.52902 0 -0.5 -4.17836 0.025 0 0 -1.60516 0.163625 
107 1 -0.141609 0.0699477 1.56363 0 -0.5 -4.09635 0.015 0 0 -0.346714 0.0353429 
94 1 -0.189136 0.246525 1.55075 -0.356499 -0.190573 -4.21459 0.015 0 0 -0.346714 0.0353429 
87 1 -0.113676 0.275588 1.54148 0 -0.5 -4.14903 0.015 0 0 -0.346714 0.0353429 
112 1 -0.073338 0.153279 1.58539 0 -0.5 -4.04386 0.015 0 0 -0.346714 0.0353429 
84 1 -0.116406 0.233786 1.58253 0 -0.5 -4.05083 0.015 0 0 -0.346714 0.0353429 
147 1 -0.100309 0.345431 1.57684 0 -0.5 -4.06456 0.015 0 0 -0.346714 0.0353429 
142 1 -0.0724928 0.0947478 1.60333 0 -0.5 -4.00011 0.015 0 0 -0.346714 0.0353429 
6 1 -0.0897712 0.129965 1.62326 0.101461 -0.428163 -3.95929 0.025 0 0 -1.60516 0.163625 
80 1 -0.102893 0.280893 1.61816 0 -0.5 -3.96362 0.015 0 0 -0.346714 0.0353429 
47 1 -0.140465 0.31745 1.60341 0 -0.5 -3.99992 0.025 0 0 -1.60516 0.163625 
145 1 -0.0934491 0.310113 1.6051 0 -0.5 -3.9958 0.015 0 0 -0.346714 0.0353429 
32 1 -0.161474 0.0806305 1.64336 -0.0613285 -0.540948 -3.89635 0.025 0 0 -1.60516 0.163625 
135 1 -0.140472 0.162893 1.64194 0 -0.5 -3.90427 0.015 0 0 -0.346714 0.0353429 
15 1 -0.0846465 0.227747 1.6434 0.0430154 -0.390763 -3.85209 0.025 0 0 -1.60516 0.163625 
62 1 -0.0849655 0.370406 1.64172 0 -0.5 -3.90486 0.015 0 0 -0.346714 0.0353429 
138 1 -0.0317395 0.0973156 1.65748 0 -0.5 -3.86503 0.015 0 0 -0.346714 0.0353429 
128 1 -0.145291 0.247677 1.65884 0 -0.5 -3.86159 0.015 0 0 -0.346714 0.0353429 
121 1 -0.0679495 0.352078 1.67516 0 -0.5 -3.8199 0.015 0 0 -0.346714 0.0353429 
280 1 -0.0180185 0.447337 1.67114 -0.323138 -0.0374805 -3.96694 0.015 0 0 -0.346714 0.0353429 
129 1 -0.0553418 0.121199 1.70495 0 -0.5 -3.7426 0.015 0 0 -0.346714 0.0353429 
13 1 -0.146779 0.203821 1.71674 0 -0.5 -3.7116 0.025 0 0 -1.60516 0.163625 
101 1 -0.102489 0.213824 1.71346 0 -0.5 -3.72023 0.015 0 0 -0.346714 0.0353429 
37 1 -0.0716655 0.316665 1.71301 0 -0.5 -3.72141 0.025 0 0 -1.60516 0.163625 
46 1 -0.032303 0.378569 1.71722 0 -0.5 -3.71032 0.025 0 0 -1.60516 0.163625 
52 1 -0.100497 0.10649 1.73245 0 -0.5 -3.66981 0.015 0 0 -0.346714 0.0353429 
61 1 -0.0231802 0.0909348 1.72584 0 -0.5 -3.68747 0.015 0 0 -0.346714 0.0353429 
5 1 -0.137704 0.134412 1.74102 0 -0.5 -3.64685 0.025 0 0 -1.60516 0.163625 
79 1 -0.0179342 0.124984 1.7259 0 -0.5 -3.68727 0.015 0 0 -0.346714 0.0353429 
7 1 -0.0712578 0.173449 1.74368 0 -0.5 -3.63969 0.025 0 0 -1.60516 0.163625 
20 1 -0.124339 0.261888 1.73836 0 -0.5 -3.65402 0.025 0 0 -1.60516 0.163625 
91 1 -0.124131 0.310132 1.72627 0 -0.5 -3.68629 0.015 0 0 -0.346714 0.0353429 
86 1 -0.142939 0.303059 1.77155 0 -0.5 -3.56376 0.015 0 0 -0.346714 0.0353429 
9 1 -0.0320364 0.337159 1.77426 0 -0.5 -3.55631 0.025 0 0 -1.60516 0.163625 
65 1 -0.147981 0.111097 1.79601 0 -0.5 -3.49578 0.015 0 0 -0.346714 0.0353429 
58 1 -0.0969698 0.207891 1.78523 0 -0.5 -3.5259 0.015 0 0 -0.346714 0.0353429 
124 1 -0.136447 0.333377 1.78513 0 -0.5 -3.52619 0.015 0 0 -0.346714 0.0353429 
41 1 -0.107908 0.388758 1.79399 0 -0.5 -3.50147 0.025 0 0 -1.60516 0.163625 
132 1 -0.0234712 0.144168 1.83949 0 -0.5 -3.37159 0.015 0 0 -0.346714 0.0353429 
48 1 -0.144727 0.201852 1.83887 0 -0.5 -3.37335 0.025 0 0 -1.60516 0.163625 
104 1 -0.138444 0.275217 1.82506 0 -0.5 -3.41328 0.015 0 0 -0.346714 0.0353429 
131 1 -0.025873 0.37604 1.81766 0 -0.5 -3.43447 0.015 0 0 -0.346714 0.0353429 
49 1 -0.0613084 0.12171 1.85455 0 -0.5 -3.32744 0.025 0 0 -1.60516 0.163625 
53 1 -0.106432 0.24634 1.8405 0 -0.5 -3.36864 0.015 0 0 -0.346714 0.0353429 
16 1 -0.129915 0.345079 1.85692 0 -0.5 -3.32048 0.025 0 0 -1.60516 0.163625 
82 1 -0.0851821 0.335627 1.86173 0 -0.5 -3.30625 0.015 0 0 -0.346714 0.0353429 
27 1 -0.0637137 0.371885 1.85741 0 -0.5 -3.319 0.025 0 0 -1.60516 0.163625 
63 1 -0.147823 0.401713 1.86877 0 -0.5 -3.28526 0.015 0 0 -0.346714 0.0353429 
25 1 -0.104447 0.155785 1.89031 0 -0.5 -3.22031 0.025 0 0 -1.60516 0.163625 
127 1 -0.0304133 0.167621 1.88187 0 -0.5 -3.24592 0.015 0 0 -0.346714 0.0353429 
56 1 -0.11556 0.399119 1.88176 0 -0.5 -3.24621 0.015 0 0 -0.346714 0.0353429 
361 1 -0.0655065 0.147159 1.9243 0 -0.5 -3.11505 0.015 0 0 -0.346714 0.0353429 
392 1 -0.0201822 0.119377 1.92611 0 -0.5 -3.10936 0.015 0 0 -0.346714 0.0353429 
375 1 -0.132504 0.184213 1.93113 0 -0.5 -3.09347 0.015 0 0 -0.346714 0.0353429 
42 1 -0.132916 0.248796 1.901 0 -0.5 -3.18755 0.025 0 0 -1.60516 0.163625 
123 1 -0.11925 0.305492 1.90371 0 -0.5 -3.17921 0.015 0 0 -0.346714 0.0353429 
125 1 -0.0960051 0.361127 1.91529 0 -0.5 -3.14331 0.015 0 0 -0.346714 0.0353429 
391 1 -0.0665259 0.34619 1.92529 0 -0.5 -3.11191 0.015 0 0 -0.346714 0.0353429 
64 1 -0.145219 0.369177 1.91392 0 -0.5 -3.14752 0.015 0 0 -0.346714 0.0353429 
449 1 -0.121601 0.12497 1.96136 0 -0.5 -2.99606 0.015 0 0 -0.346714 0.0353429 
353 1 -0.0778865 0.20051 1.94488 0 -0.5 -3.04952 0.015 0 0 -0.346714 0.0353429 
444 1 -0.0159467 0.465681 2.5756 -0 0 -2 0.015 0 0 0 0.0353429 
432 1 -0.110656 0.260023 1.95359 0 -0.5 -3.02137 0.015 0 0 -0.346714 0.0353429 
423 1 -0.035066 0.364352 1.95242 0 -0.5 -3.02519 0.015 0 0 -0.346714 0.0353429 
370 1 -0.0476722 0.418061 1.94487 0 -0.5 -3.04962 0.015 0 0 -0.346714 0.0353429 
348 1 -0.0448532 0.138234 1.97307 -0.0150753 -0.514502 -2.95191 0.025 0 0 -1.60516 0.163625 
409 1 -0.1116 0.232279 1.97848 0 -0.5 -2.93945 0.015 0 0 -0.346714 0.0353429 
434 1 -0.110177 0.392235 1.97699 0 -0.5 -2.94446 0.015 0 0 -0.346714 0.0353429 
414 1 -0.12165 0.302412 2.01583 0 -0.5 -2.81202 0.015 0 0 -0.346714 0.0353429 
304 1 -0.147639 0.358299 1.99502 0 -0.5 -2.88373 0.025 0 0 -1.60516 0.163625 
327 1 -0.047146 0.395396 2.01252 0 -0.5 -2.8236 0.025 0 0 -1.60516 0.163625 
440 1 -0.074831 0.146633 2.05154 0 -0.5 -2.68459 0.015 0 0 -0.346714 0.0353429 
307 1 -0.141488 0.164316 2.0435 0 -0.5 -2.71382 0.025 0 0 -1.60516 0.163625 
368 1 -0.0426125 0.170103 2.02668 0 -0.5 -2.77396 0.015 0 0 -0.346714 0.0353429 
328 1 -0.101567 0.19536 2.03655 0 -0.5 -2.73884 0.025 0 0 -1.60516 0.163625 
416 1 -0.148865 0.323752 2.02351 0 -0.5 -2.78514 0.015 0 0 -0.346714 0.0353429 
342 1 -0.0942786 0.346007 2.03728 0 -0.5 -2.73619 0.025 0 0 -1.60516 0.163625 
422 1 -0.0856494 0.386628 2.02558 0 -0.5 -2.77788 0.015 0 0 -0.346714 0.0353429 
441 1 -0.0895132 0.424957 2.04374 0 -0.5 -2.71294 0.015 0 0 -0.346714 0.0353429 
388 1 -0.0545692 0.210686 2.06826 0 -0.5 -2.62279 0.015 0 0 -0.346714 0.0353429 
323 1 -0.131477 0.279813 2.06709 0 -0.5 -2.6272 0.025 0 0 -1.60516 0.163625 
352 1 -0.144025 0.383939 2.05802 0 -0.5 -2.66085 0.015 0 0 -0.346714 0.0353429 
406 1 -0.0920408 0.383666 2.07318 0 -0.5 -2.60435 0.015 0 0 -0.346714 0.0353429 
330 1 -0.125578 0.440028 2.06064 0 -0.5 -2.65114 0.025 0 0 -1.60516 0.163625 
331 1 -0.138106 0.151831 2.10415 0 -0.5 -2.48496 0.025 0 0 -1.60516 0.163625 
418 1 -0.0554251 0.15694 2.09646 0 -0.5 -2.51507 0.015 0 0 -0.346714 0.0353429 
395 1 -0.110093 0.207872 2.10051 0 -0.5 -2.49928 0.015 0 0 -0.346714 0.0353429 
313 1 -0.0392615 0.195689 2.11181 0 -0.5 -2.45455 0.025 0 0 -1.60516 0.163625 
318 1 -0.126425 0.357158 2.09509 0 -0.5 -2.52047 0.025 0 0 -1.60516 0.163625 
336 1 -0.025747 0.390523 2.1 0 -0.5 -2.50124 0.025 0 0 -1.60516 0.163625 
374 1 -0.133879 0.417467 2.11314 0 -0.5 -2.44915 0.015 0 0 -0.346714 0.0353429 
315 1 -0.0970947 0.262406 2.12522 0 -0.5 -2.4003 0.025 0 0 -1.60516 0.163625 
445 1 -0.0938501 0.332643 2.13404 0 -0.5 -2.364 0.015 0 0 -0.346714 0.0353429 
407 1 -0.0713596 0.390089 2.12604 0 -0.5 -2.39696 0.015 0 0 -0.346714 0.0353429 
386 1 -0.118095 0.40111 2.14492 0 -0.5 -2.31838 0.015 0 0 -0.346714 0.0353429 
310 1 -0.0919271 0.427993 2.12356 0 -0.5 -2.40707 0.025 0 0 -1.60516 0.163625 
377 1 -0.128279 0.17972 2.14715 0 -0.5 -2.30897 0.015 0 0 -0.346714 0.0353429 
302 1 -0.0567477 0.177316 2.1665 0 -0.5 -2.22519 0.025 0 0 -1.60516 0.163625 
401 1 -0.0913429 0.20878 2.16541 0 -0.5 -2.23 0.015 0 0 -0.346714 0.0353429 
314 1 -0.136534 0.245236 2.17142 0 -0.5 -2.20341 0.025 0 0 -1.60516 0.163625 
439 1 -0.132801 0.295897 2.16376 0 -0.5 -2.23725 0.015 0 0 -0.346714 0.0353429 
344 1 -0.147144 0.333445 2.15611 0 -0.5 -2.27051 0.025 0 0 -1.60516 0.163625 
431 1 -0.13363 0.205651 2.18686 0 -0.5 -2.13356 0.015 0 0 -0.346714 0.0353429 
355 1 -0.0483468 0.224759 2.18294 0 -0.5 -2.15152 0.015 0 0 -0.346714 0.0353429 
446 1 -0.116317 0.362626 2.19826 0 -0.5 -2.08049 0.015 0 0 -0.346714 0.0353429 
354 1 -0.0927402 0.393498 2.186 0 -0.5 -2.13749 0.015 0 0 -0.346714 0.0353429 
413 1 -0.0512121 0.394816 2.17961 0 -0.5 -2.16662 0.015 0 0 -0.346714 0.0353429 
411 1 -0.0485728 0.445056 2.20243 0 -0.5 -2.06077 0.015 0 0 -0.346714 0.0353429 
442 1 -0.149932 0.454171 2.18033 0 -0.5 -2.16339 0.015 0 0 -0.346714 0.0353429 
408 1 -0.087028 0.462439 2.18521 0 -0.5 -2.14112 0.015 0 0 -0.346714 0.0353429 
324 1 -0.0498553 0.178658 2.23119 -0 0 -2 0.025 0 0 0 0.163625 
350 1 -0.147794 0.212625 2.22609 -0 0 -2 0.025 0 0 0 0.163625 
399 1 -0.074527 0.226788 2.22004 -0 0 -2 0.015 0 0 0 0.0353429 
437 1 -0.0723044 0.254202 2.23514 -0 0 -2 0.015 0 0 0 0.0353429 
335 1 -0.126459 0.273678 2.22598 -0 0 -2 0.025 0 0 0 0.163625 
436 1 -0.0854574 0.281776 2.2197 -0 0 -2 0.015 0 0 0 0.0353429 
341 1 -0.148816 0.394703 2.22111 -0 0 -2 0.025 0 0 0 0.163625 
385 1 -0.0696212 0.401745 2.2295 -0 0 -2 0.015 0 0 0 0.0353429 
384 1 -0.142553 0.470858 2.23151 -0 0 -2 0.015 0 0 0 0.0353429 
382 1 -0.111765 0.469441 2.21225 0 -0.5 -2.01339 0.015 0 0 -0.346714 0.0353429 
389 1 -0.0230912 0.468001 2.22171 -0 0 -2 0.015 0 0 0 0.0353429 
358 1 -0.127277 0.195217 2.26131 -0 0 -2 0.015 0 0 0 0.0353429 
367 1 -0.106717 0.230156 2.2537 -0 0 -2 0.015 0 0 0 0.0353429 
326 1 -0.145564 0.324649 2.26223 -0 0 -2 0.025 0 0 0 0.163625 
394 1 -0.145405 0.426519 2.24767 -0 0 -2 0.015 0 0 0 0.0353429 
424 1 -0.118548 0.427887 2.26249 -0 0 -2 0.015 0 0 0 0.0353429 
427 1 -0.116274 0.458291 2.24 -0 0 -2 0.015 0 0 0 0.0353429 
319 1 -0.0687817 0.474805 2.25988 -0 0 -2 0.025 0 0 0 0.163625 
426 1 -0.0179373 0.455344 2.25349 -0 0 -2 0.015 0 0 0 0.0353429 
433 1 -0.118613 0.17501 2.28562 -0 0 -2 0.015 0 0 0 0.0353429 
420 1 -0.037203 0.182681 2.2876 -0 0 -2 0.015 0 0 0 0.0353429 
402 1 -0.101682 0.217667 2.28949 -0 0 -2 0.015 0 0 0 0.0353429 
376 1 -0.0824761 0.237462 2.27225 -0 0 -2 0.015 0 0 0 0.0353429 
306 1 -0.116739 0.395569 2.28887 -0 0 -2 0.025 0 0 0 0.163625 
412 1 -0.0937388 0.465344 2.29197 -0 0 -2 0.015 0 0 0 0.0353429 
322 1 -0.131733 0.197689 2.31851 -0 0 -2 0.025 0 0 0 0.163625 
363 1 -0.0911777 0.291602 2.30191 -0 0 -2 0.015 0 0 0 0.0353429 
360 1 -0.116599 0.315716 2.30104 -0 0 -2 0.015 0 0 0 0.0353429 
373 1 -0.136858 0.343079 2.32344 -0 0 -2 0.015 0 0 0 0.0353429 
396 1 -0.0958984 0.364505 2.31964 -0 0 -2 0.015 0 0 0 0.0353429 
369 1 -0.138958 0.401078 2.32495 -0 0 -2 0.015 0 0 0 0.0353429 
397 1 -0.0557758 0.403383 2.30394 -0 0 -2 0.015 0 0 0 0.0353429 
383 1 -0.0262689 0.419173 2.32554 -0 0 -2 0.015 0 0 0 0.0353429 
381 1 -0.0827007 0.433694 2.3167 -0 0 -2 0.015 0 0 0 0.0353429 
371 1 -0.0449321 0.442824 2.30013 -0 0 -2 0.015 0 0 0 0.0353429 
308 1 -0.0755208 0.211588 2.33733 -0 0 -2 0.025 0 0 0 0.163625 
415 1 -0.127182 0.240475 2.34963 -0 0 -2 0.015 0 0 0 0.0353429 
398 1 -0.0484497 0.240461 2.33125 -0 0 -2 0.015 0 0 0 0.0353429 
343 1 -0.140775 0.298259 2.35358 -0 0 -2 0.025 0 0 0 0.163625 
438 1 -0.0987495 0.291508 2.33831 -0 0 -2 0.015 0 0 0 0.0353429 
356 1 -0.111476 0.333774 2.34217 -0 0 -2 0.015 0 0 0 0.0353429 
443 1 -0.0906469 0.387283 2.3485 -0 0 -2 0.015 0 0 0 0.0353429 
349 1 -0.116564 0.417399 2.35579 -0 0 -2 0.025 0 0 0 0.163625 
351 1 -0.0409452 0.415267 2.35839 -0 0 -2 0.015 0 0 0 0.0353429 
340 1 -0.149237 0.461517 2.34189 -0 0 -2 0.025 0 0 0 0.163625 
390 1 -0.0988461 0.19568 2.37064 -0 0 -2 0.015 0 0 0 0.0353429 
448 1 -0.0329565 0.20149 2.38332 -0 0 -2 0.015 0 0 0 0.0353429 
347 1 -0.0548177 0.23798 2.38665 -0 0 -2 0.025 0 0 0 0.163625 
419 1 -0.111609 0.178994 2.40111 -0 0 -2 0.015 0 0 0 0.0353429 
362 1 -0.0154426 0.229504 2.39942 -0 0 -2 0.015 0 0 0 0.0353429 
421 1 -0.0930175 0.256927 2.40948 -0 0 -2 0.015 0 0 0 0.0353429 
378 1 -0.121409 0.285313 2.39055 -0 0 -2 0.015 0 0 0 0.0353429 
312 1 -0.134707 0.344673 2.3912 -0 0 -2 0.025 0 0 0 0.163625 
359 1 -0.107325 0.388274 2.39551 -0 0 -2 0.015 0 0 0 0.0353429 
303 1 -0.0551599 0.406314 2.39967 -0 0 -2 0.025 0 0 0 0.163625 
365 1 -0.146907 0.425762 2.41402 -0 0 -2 0.015 0 0 0 0.0353429 
334 1 -0.103439 0.440728 2.4059 -0 0 -2 0.025 0 0 0 0.163625 
417 1 -0.0160313 0.444009 2.39119 -0 0 -2 0.015 0 0 0 0.0353429 
346 1 -0.149998 0.46436 2.39609 -0 0 -2 0.025 0 0 0 0.163625 
320 1 -0.0648735 0.208579 2.4404 -0 0 -2 0.025 0 0 0 0.163625 
325 1 -0.117824 0.294875 2.43162 -0 0 -2 0.025 0 0 0 0.163625 
372 1 -0.0702168 0.391047 2.44378 -0 0 -2 0.015 0 0 0 0.0353429 
447 1 -0.122284 0.473304 2.44095 -0 0 -2 0.015 0 0 0 0.0353429 
309 1 -0.144284 0.205271 2.45006 -0 0 -2 0.025 0 0 0 0.163625 
379 1 -0.0327871 0.203074 2.46803 -0 0 -2 0.015 0 0 0 0.0353429 
430 1 -0.123083 0.250988 2.45662 -0 0 -2 0.015 0 0 0 0.0353429 
403 1 -0.0833248 0.256507 2.45857 -0 0 -2 0.015 0 0 0 0.0353429 
387 1 -0.0901615 0.367162 2.45218 -0 0 -2 0.015 0 0 0 0.0353429 
393 1 -0.015571 0.425619 2.46566 -0 0 -2 0.015 0 0 0 0.0353429 
338 1 -0.0583644 0.458496 2.45125 -0 0 -2 0.025 0 0 0 0.163625 
316 1 -0.0983119 0.181261 2.49041 -0 0 -2 0.025 0 0 0 0.163625 
364 1 -0.0453235 0.209912 2.49859 -0 0 -2 0.015 0 0 0 0.0353429 
321 1 -0.126579 0.250186 2.49926 -0 0 -2 0.025 0 0 0 0.163625 
357 1 -0.0584785 0.247404 2.48625 -0 0 -2 0.015 0 0 0 0.0353429 
410 1 -0.145474 0.298701 2.50235 -0 0 -2 0.015 0 0 0 0.0353429 
333 1 -0.0978849 0.312107 2.49992 -0 0 -2 0.025 0 0 0 0.163625 
380 1 -0.127355 0.355901 2.49531 -0 0 -2 0.015 0 0 0 0.0353429 
301 1 -0.0884221 0.421264 2.49136 -0 0 -2 0.025 0 0 0 0.163625 
428 1 -0.0387226 0.430102 2.49462 -0 0 -2 0.015 0 0 0 0.0353429 
329 1 -0.123479 0.457221 2.48885 -0 0 -2 0.025 0 0 0 0.163625 
450 1 -0.0322061 0.474788 2.49545 -0 0 -2 0.015 0 0 0 0.0353429 
332 1 -0.0814262 0.231721 2.53718 -0 0 -2 0.025 0 0 0 0.163625 
400 1 -0.135353 0.274705 2.53982 -0 0 -2 0.015 0 0 0 0.0353429 
337 1 -0.142368 0.393123 2.50988 -0 0 -2 0.025 0 0 0 0.163625 
425 1 -0.074083 0.175677 2.54745 -0 0 -2 0.015 0 0 0 0.0353429 
404 1 -0.119976 0.192749 2.56339 -0 0 -2 0.015 0 0 0 0.0353429 
311 1 -0.0354402 0.189328 2.55516 -0 0 -2 0.025 0 0 0 0.163625 
345 1 -0.128178 0.236209 2.56086 -0 0 -2 0.025 0 0 0 0.163625 
435 1 -0.0960728 0.272801 2.56372 -0 0 -2 0.015 0 0 0 0.0353429 
317 1 -0.129905 0.313645 2.55265 -0 0 -2 0.025 0 0 0 0.163625 
366 1 -0.144217 0.391047 2.55091 -0 0 -2 0.015 0 0 0 0.0353429 
339 1 -0.0802774 0.437645 2.54707 -0 0 -2 0.025 0 0 0 0.163625 
405 1 -0.038992 0.42438 2.55504 -0 0 -2 0.015 0 0 0 0.0353429 
305 1 -0.0452536 0.474362 2.54745 -0 0 -2 0.025 0 0 0 0.163625 
289 1 0.100272 0.237012 0.390289 0.0203384 -0.134604 -6.44959 0.015 0 0 -0.346714 0.0353429 
284 1 0.0680019 -0.0284078 0.525158 -0.0310215 -0.613333 -6.14431 0.015 0 0 -0.346714 0.0353429 
199 1 0.0897039 0.136071 0.558402 -0.00278668 -0.321029 -6.12125 0.025 0 0 -1.60516 0.163625 
203 1 0.0667127 -0.0287672 0.568636 0 -0.5 -6.02509 0.015 0 0 -0.346714 0.0353429 
206 1 0.103091 0.00345614 0.564578 0.057048 -0.582454 -6.06877 0.015 0 0 -0.346714 0.0353429 
214 1 0.144386 0.157733 0.579818 0 -0.5 -6.00685 0.015 0 0 -0.346714 0.0353429 
213 1 0.0350777 0.21057 0.568804 0 -0.5 -6.0248 0.015 0 0 -0.346714 0.0353429 
272 1 0.0168276 0.245548 0.563273 0 -0.5 -6.03382 0.015 0 0 -0.346714 0.0353429 
241 1 0.0849537 0.241018 0.585167 0 -0.5 -5.99811 0.015 0 0 -0.346714 0.0353429 
259 1 0.149131 0.0118265 0.598518 0 -0.5 -5.97624 0.015 0 0 -0.346714 0.0353429 
263 1 0.025742 0.0324937 0.612465 0 -0.5 -5.95328 0.015 0 0 -0.346714 0.0353429 
237 1 0.133599 0.0380336 0.593701 0.0724848 -0.475593 -5.97377 0.015 0 0 -0.346714 0.0353429 
171 1 0.0955264 0.173107 0.597742 0 -0.5 -5.97751 0.025 0 0 -1.60516 0.163625 
226 1 0.110692 0.219304 0.591945 0 -0.5 -5.98703 0.015 0 0 -0.346714 0.0353429 
220 1 0.0135031 -0.0157805 0.645928 -0.0669262 -0.554313 -5.89107 0.015 0 0 -0.346714 0.0353429 
116 1 0.0448175 0.145354 0.631499 0.36535 -0.287166 -6.00952 0.015 0 0 -0.346714 0.0353429 
177 1 0.166139 0.15022 0.644095 0.112606 -0.398162 -5.90608 0.025 0 0 -1.60516 0.163625 
249 1 0.0491797 0.211421 0.712315 0 -0.5 -5.78641 0.015 0 0 -0.346714 0.0353429 
290 1 0.152914 0.214878 0.694308 0.0439512 -0.299137 -5.77972 0.015 0 0 -0.346714 0.0353429 
166 1 0.0609489 0.275253 0.692831 0 -0.5 -5.81938 0.025 0 0 -1.60516 0.163625 
184 1 0.11251 0.273841 0.685772 0 -0.5 -5.83125 0.025 0 0 -1.60516 0.163625 
270 1 0.0946744 0.203669 0.727505 0 -0.5 -5.76061 0.015 0 0 -0.346714 0.0353429 
216 1 0.0931859 0.000322821 0.760262 0.0481324 -0.610657 -5.68345 0.015 0 0 -0.346714 0.0353429 
222 1 0.123753 0.0136614 0.750346 0 -0.5 -5.72157 0.015 0 0 -0.346714 0.0353429 
294 1 0.128315 0.236152 0.745541 0 -0.5 -5.72981 0.015 0 0 -0.346714 0.0353429 
180 1 0.0373401 0.029014 0.794759 -0.021889 -0.504465 -5.63886 0.025 0 0 -1.60516 0.163625 
253 1 0.123075 0.121069 0.797506 0 -0.5 -5.64015 0.015 0 0 -0.346714 0.0353429 
170 1 0.191573 0.206902 0.775094 0.161731 -0.381986 -5.69315 0.025 0 0 -1.60516 0.163625 
231 1 0.0350342 0.23362 0.79102 0 -0.5 -5.65143 0.015 0 0 -0.346714 0.0353429 
282 1 0.00429554 0.0784719 0.833917 -0.2609 -0.673185 -5.55541 0.015 0 0 -0.346714 0.0353429 
169 1 0.0892107 0.242668 0.816463 0 -0.5 -5.60709 0.025 0 0 -1.60516 0.163625 
209 1 0.0969746 0.00924758 0.849203 0 -0.5 -5.5495 0.015 0 0 -0.346714 0.0353429 
278 1 0.113612 0.143965 0.887917 0 -0.5 -5.48064 0.015 0 0 -0.346714 0.0353429 
296 1 0.146983 0.125001 0.889999 0 -0.5 -5.47691 0.015 0 0 -0.346714 0.0353429 
257 1 0.139837 0.256641 0.888472 0 -0.5 -5.47966 0.015 0 0 -0.346714 0.0353429 
162 1 0.0478022 0.246457 0.924962 0 -0.5 -5.41393 0.025 0 0 -1.60516 0.163625 
235 1 0.134937 0.0123847 0.947662 0 -0.5 -5.37263 0.015 0 0 -0.346714 0.0353429 
168 1 0.0261487 0.0461037 0.933991 0 -0.5 -5.39755 0.025 0 0 -1.60516 0.163625 
269 1 0.141487 0.0415043 0.930745 0 -0.5 -5.40343 0.015 0 0 -0.346714 0.0353429 
185 1 0.0936576 0.0906661 0.955453 0 -0.5 -5.3584 0.025 0 0 -1.60516 0.163625 
217 1 0.133752 0.0916912 0.945945 0 -0.5 -5.37577 0.015 0 0 -0.346714 0.0353429 
182 1 0.114565 0.201779 0.941645 0 -0.5 -5.38362 0.025 0 0 -1.60516 0.163625 
176 1 0.0399362 0.298472 0.946044 0 -0.5 -5.37557 0.025 0 0 -1.60516 0.163625 
286 1 0.147755 0.29087 0.944761 0 -0.5 -5.37793 0.015 0 0 -0.346714 0.0353429 
153 1 0.0895866 0.00675978 0.983595 0 -0.5 -5.30661 0.025 0 0 -1.60516 0.163625 
211 1 0.0694768 0.0649716 1.00585 0 -0.5 -5.26531 0.015 0 0 -0.346714 0.0353429 
251 1 0.126174 0.159559 0.998204 0 -0.5 -5.27953 0.015 0 0 -0.346714 0.0353429 
291 1 0.140432 0.235523 1.0227 0 -0.5 -5.23382 0.015 0 0 -0.346714 0.0353429 
159 1 0.087245 0.294208 1.02422 0 -0.5 -5.23097 0.025 0 0 -1.60516 0.163625 
300 1 0.149285 0.28824 1.03884 0 -0.5 -5.2035 0.015 0 0 -0.346714 0.0353429 
204 1 0.134881 0.0532481 1.05035 0 -0.5 -5.18173 0.015 0 0 -0.346714 0.0353429 
161 1 0.135356 0.11085 1.04917 0 -0.5 -5.18398 0.025 0 0 -1.60516 0.163625 
230 1 0.118982 0.151372 1.06921 0 -0.5 -5.14592 0.015 0 0 -0.346714 0.0353429 
228 1 0.0279693 0.260593 1.05828 0 -0.5 -5.16672 0.015 0 0 -0.346714 0.0353429 
175 1 0.0941494 0.0460588 1.09144 0 -0.5 -5.10334 0.025 0 0 -1.60516 0.163625 
293 1 0.0548164 0.0851452 1.13 0 -0.5 -5.02869 0.015 0 0 -0.346714 0.0353429 
192 1 0.134392 0.209049 1.11896 0 -0.5 -5.05017 0.025 0 0 -1.60516 0.163625 
285 1 0.0870748 0.246259 1.12088 0 -0.5 -5.04645 0.015 0 0 -0.346714 0.0353429 
275 1 0.0211058 0.292962 1.13712 0 -0.5 -5.01476 0.015 0 0 -0.346714 0.0353429 
256 1 0.0868225 0.278057 1.11461 0 -0.5 -5.05861 0.015 0 0 -0.346714 0.0353429 
250 1 0.138716 0.292193 1.11157 0 -0.5 -5.0645 0.015 0 0 -0.346714 0.0353429 
246 1 0.0494565 0.31301 1.12174 0 -0.5 -5.04478 0.015 0 0 -0.346714 0.0353429 
240 1 0.0956629 0.30988 1.12446 0 -0.5 -5.03948 0.015 0 0 -0.346714 0.0353429 
299 1 0.0153001 0.0695412 1.13913 0 -0.5 -5.01084 0.015 0 0 -0.346714 0.0353429 
200 1 0.112803 0.102149 1.15802 0 -0.5 -4.97375 0.025 0 0 -1.60516 0.163625 
255 1 0.0340792 0.260865 1.1652 0 -0.5 -4.95953 0.015 0 0 -0.346714 0.0353429 
252 1 0.131256 0.269424 1.1652 0 -0.5 -4.95953 0.015 0 0 -0.346714 0.0353429 
202 1 0.126943 0.0441189 1.17273 0 -0.5 -4.94462 0.015 0 0 -0.346714 0.0353429 
245 1 0.0868358 0.0697147 1.18525 0 -0.5 -4.9197 0.015 0 0 -0.346714 0.0353429 
189 1 0.0509787 0.043512 1.21315 0 -0.5 -4.86378 0.025 0 0 -1.60516 0.163625 
247 1 0.0532922 0.0975654 1.20554 0 -0.5 -4.87909 0.015 0 0 -0.346714 0.0353429 
154 1 0.116388 0.189122 1.22735 0 -0.5 -4.83504 0.025 0 0 -1.60516 0.163625 
287 1 0.130384 0.0343502 1.2469 0 -0.5 -4.79521 0.015 0 0 -0.346714 0.0353429 
288 1 0.0326968 0.0794455 1.25896 0 -0.5 -4.77049 0.015 0 0 -0.346714 0.0353429 
190 1 0.11779 0.302732 1.23849 0 -0.5 -4.81238 0.025 0 0 -1.60516 0.163625 
295 1 0.103955 0.248828 1.26262 0 -0.5 -4.76294 0.015 0 0 -0.346714 0.0353429 
156 1 0.0411221 0.297187 1.26554 0 -0.5 -4.75695 0.025 0 0 -1.60516 0.163625 
210 1 0.0872868 0.0413864 1.29567 0 -0.5 -4.69437 0.015 0 0 -0.346714 0.0353429 
181 1 0.070397 0.0803443 1.30468 0 -0.5 -4.67553 0.025 0 0 -1.60516 0.163625 
165 1 0.148355 0.132191 1.29141 0 -0.5 -4.70329 0.025 0 0 -1.60516 0.163625 
260 1 0.0198171 0.0891197 1.3384 0 -0.5 -4.60421 0.015 0 0 -0.346714 0.0353429 
152 1 0.089118 0.147144 1.3302 0 -0.5 -4.62167 0.025 0 0 -1.60516 0.163625 
279 1 0.11959 0.207322 1.3409 0 -0.5 -4.59891 0.015 0 0 -0.346714 0.0353429 
262 1 0.0888361 0.241008 1.34818 0 -0.5 -4.58332 0.015 0 0 -0.346714 0.0353429 
234 1 0.0945525 0.290871 1.34218 0 -0.5 -4.59617 0.015 0 0 -0.346714 0.0353429 
208 1 0.0680799 0.327251 1.3498 0 -0.5 -4.57988 0.015 0 0 -0.346714 0.0353429 
233 1 0.0406697 0.0592917 1.354 0 -0.5 -4.57086 0.015 0 0 -0.346714 0.0353429 
207 1 0.128901 0.258384 1.36945 0 -0.5 -4.5376 0.015 0 0 -0.346714 0.0353429 