ITEM: TIMESTEP
83200
ITEM: NUMBER OF ATOMS
900
ITEM: BOX BOUNDS mm mm mm
-1 1
-1 1
-3.057 2.85
ITEM: ATOMS id type x y z vx vy vz radius fx fy fz mass 
68 1 -0.0997213 -0.170729 -2.75345 0 -0.5 -10.0738 0.015 0 0 -0.346714 0.0353429 
137 1 -0.0928841 -0.113976 -2.72944 -0.00924354 -0.479856 -10.0509 0.015 0 0 -0.346714 0.0353429 
45 1 -0.0943793 -0.219762 -2.70141 0 -0.5 -10.023 0.025 0 0 -1.60516 0.163625 
122 1 -0.0662598 -0.171357 -2.70022 0.00811842 -0.517403 -10.0213 0.015 0 0 -0.346714 0.0353429 
33 1 -0.129286 0.0206047 -2.71254 0 -0.5 -10.0339 0.025 0 0 -1.60516 0.163625 
119 1 -0.0370509 -0.230811 -2.64751 0 -0.5 -9.97009 0.015 0 0 -0.346714 0.0353429 
43 1 -0.116198 -0.0682146 -2.66279 0 -0.5 -9.98509 0.025 0 0 -1.60516 0.163625 
111 1 -0.0487783 0.0641 -2.66169 0 -0.5 -9.98402 0.015 0 0 -0.346714 0.0353429 
75 1 -0.0493142 -0.180328 -2.61577 0 -0.5 -9.93879 0.015 0 0 -0.346714 0.0353429 
78 1 -0.0422369 0.0279551 -2.63328 0 -0.5 -9.95606 0.015 0 0 -0.346714 0.0353429 
89 1 -0.129145 -0.151692 -2.60404 0 -0.5 -9.92722 0.015 0 0 -0.346714 0.0353429 
59 1 -0.0865612 -0.0231322 -2.57807 0 -0.5 -9.90151 0.015 0 0 -0.346714 0.0353429 
220 1 -0.0138028 -0.24194 -2.57413 -0.0669262 -0.554313 -9.89355 0.015 0 0 -0.346714 0.0353429 
92 1 -0.131017 0.0713272 -2.55057 0 -0.5 -9.87424 0.015 0 0 -0.346714 0.0353429 
98 1 -0.147127 -0.0795582 -2.44871 0 -0.5 -9.77251 0.015 0 0 -0.346714 0.0353429 
151 1 -0.0686397 0.00252701 -2.44978 0 -0.5 -9.77359 0.015 0 0 -0.346714 0.0353429 
8 1 -0.104188 -0.212537 -2.41789 0 -0.5 -9.74151 0.025 0 0 -1.60516 0.163625 
3 1 -0.141317 -0.0146121 -2.40375 0 -0.5 -9.72729 0.025 0 0 -1.60516 0.163625 
72 1 -0.105673 0.022796 -2.37938 0 -0.5 -9.70266 0.015 0 0 -0.346714 0.0353429 
100 1 -0.0681017 -0.144079 -2.34421 0 -0.5 -9.66705 0.015 0 0 -0.346714 0.0353429 
140 1 -0.125739 -0.102444 -2.35302 0 -0.5 -9.67598 0.015 0 0 -0.346714 0.0353429 
40 1 -0.104474 0.0741982 -2.35099 0 -0.5 -9.67392 0.025 0 0 -1.60516 0.163625 
117 1 -0.0596227 -0.200979 -2.30775 0 -0.5 -9.62997 0.015 0 0 -0.346714 0.0353429 
118 1 -0.0372647 0.0576811 -2.33494 0 -0.5 -9.65764 0.015 0 0 -0.346714 0.0353429 
148 1 -0.237872 -0.0247401 -2.30436 -0.171679 -0.397353 -9.67931 0.015 0 0 -0.346714 0.0353429 
51 1 -0.169141 -0.19454 -2.26066 -0.0265052 -0.519812 -9.57807 0.025 0 0 -1.60516 0.163625 
282 1 -0.102152 -0.196188 -2.2492 -0.2609 -0.673185 -9.55789 0.015 0 0 -0.346714 0.0353429 
11 1 -0.0902728 -0.0156274 -2.18609 0.022917 -0.457889 -9.51679 0.025 0 0 -1.60516 0.163625 
90 1 -0.146535 0.0756669 -2.20422 0 -0.5 -9.52393 0.015 0 0 -0.346714 0.0353429 
60 1 -0.0770515 -0.192072 -2.16906 0 -0.5 -9.48763 0.015 0 0 -0.346714 0.0353429 
50 1 -0.130982 0.0323549 -2.16649 0 -0.5 -9.48498 0.025 0 0 -1.60516 0.163625 
74 1 -0.0790012 0.0198934 -2.10853 0 -0.5 -9.42485 0.015 0 0 -0.346714 0.0353429 
44 1 -0.125916 -0.200403 -2.06445 0 -0.5 -9.37884 0.025 0 0 -1.60516 0.163625 
105 1 -0.321773 0.0121904 -2.09156 -0.321192 -0.368687 -9.4005 0.015 0 0 -0.346714 0.0353429 
76 1 -0.0202065 0.04807 -2.08209 0 -0.5 -9.39728 0.015 0 0 -0.346714 0.0353429 
29 1 -0.0788351 0.0621821 -2.03869 0 -0.5 -9.35186 0.025 0 0 -1.60516 0.163625 
36 1 -0.103411 -0.153688 -2.02869 0 -0.5 -9.34136 0.025 0 0 -1.60516 0.163625 
54 1 -0.19637 -0.130657 -1.988 -0.0956439 -0.529683 -9.29006 0.015 0 0 -0.346714 0.0353429 
114 1 -0.0721874 -0.12341 -1.96958 -0.00040144 -0.499666 -9.27915 0.015 0 0 -0.346714 0.0353429 
73 1 -0.0639552 -0.174233 -1.91904 0 -0.5 -9.22551 0.015 0 0 -0.346714 0.0353429 
113 1 -0.118506 0.0971977 -1.92967 0 -0.5 -9.23679 0.015 0 0 -0.346714 0.0353429 
2 1 -0.110349 -0.0269288 -1.90946 0 -0.5 -9.2153 0.025 0 0 -1.60516 0.163625 
12 1 -0.0363281 0.0823359 -1.88414 0 -0.5 -9.18833 0.025 0 0 -1.60516 0.163625 
146 1 -0.109965 -0.187084 -1.88158 0 -0.5 -9.18558 0.015 0 0 -0.346714 0.0353429 
88 1 -0.0666498 0.0399185 -1.85452 0 -0.5 -9.15664 0.015 0 0 -0.346714 0.0353429 
57 1 -0.120673 -0.0709395 -1.83615 0 -0.5 -9.13692 0.015 0 0 -0.346714 0.0353429 
99 1 -0.146283 -0.122483 -1.81469 0 -0.5 -9.11387 0.015 0 0 -0.346714 0.0353429 
10 1 -0.0502606 0.0829139 -1.81887 0.0635655 -0.375939 -9.17056 0.025 0 0 -1.60516 0.163625 
34 1 -0.138562 0.046511 -1.76508 0 -0.5 -9.06031 0.025 0 0 -1.60516 0.163625 
66 1 -0.0281121 -0.135177 -1.74219 0 -0.5 -9.03549 0.015 0 0 -0.346714 0.0353429 
83 1 -0.108229 -0.092854 -1.75539 0 -0.5 -9.04981 0.015 0 0 -0.346714 0.0353429 
19 1 -0.0715757 -0.112748 -1.74897 0 -0.5 -9.04284 0.025 0 0 -1.60516 0.163625 
81 1 -0.0166169 0.0758437 -1.71501 0.07636 -0.438847 -8.983 0.015 0 0 -0.346714 0.0353429 
71 1 -0.145263 0.0901975 -1.72801 0 -0.5 -9.02009 0.015 0 0 -0.346714 0.0353429 
24 1 -0.138394 -0.152548 -1.67586 0 -0.5 -8.96319 0.025 0 0 -1.60516 0.163625 
67 1 -0.0183057 -0.179611 -1.69768 0 -0.5 -8.98703 0.015 0 0 -0.346714 0.0353429 
133 1 -0.127566 -0.0360556 -1.66046 0 -0.5 -8.94631 0.015 0 0 -0.346714 0.0353429 
95 1 -0.10482 0.0513122 -1.6543 0 -0.5 -8.93954 0.015 0 0 -0.346714 0.0353429 
39 1 -0.0696793 0.10101 -1.6541 0 -0.5 -8.93935 0.025 0 0 -1.60516 0.163625 
70 1 -0.107191 -0.126076 -1.58921 0 -0.5 -8.86783 0.015 0 0 -0.346714 0.0353429 
103 1 -0.135939 -0.108278 -1.61078 0 -0.5 -8.89167 0.015 0 0 -0.346714 0.0353429 
143 1 -0.11631 0.109682 -1.59541 0 -0.5 -8.8747 0.015 0 0 -0.346714 0.0353429 
97 1 -0.0338223 -0.122856 -1.56079 0 -0.5 -8.83634 0.015 0 0 -0.346714 0.0353429 
115 1 -0.076478 -0.0875689 -1.56007 0 -0.5 -8.83556 0.015 0 0 -0.346714 0.0353429 
85 1 -0.13789 0.0340152 -1.55584 0 -0.5 -8.83085 0.015 0 0 -0.346714 0.0353429 
28 1 -0.0685748 -0.14993 -1.5449 0 -0.5 -8.81869 0.025 0 0 -1.60516 0.163625 
134 1 -0.137197 0.0743666 -1.52755 0 -0.5 -8.79936 0.015 0 0 -0.346714 0.0353429 
126 1 -0.131225 -0.0527158 -1.49977 -0.0288748 -0.539424 -8.75419 0.015 0 0 -0.346714 0.0353429 
77 1 -0.0297287 0.102749 -1.51516 0 -0.5 -8.78553 0.015 0 0 -0.346714 0.0353429 
120 1 -0.148569 0.123261 -1.51163 0 -0.5 -8.7816 0.015 0 0 -0.346714 0.0353429 
96 1 -0.131998 -0.122919 -1.48104 0 -0.5 -8.74737 0.015 0 0 -0.346714 0.0353429 
38 1 -0.121616 -0.0818121 -1.44535 0 -0.5 -8.70724 0.025 0 0 -1.60516 0.163625 
130 1 -0.0642546 -0.0875593 -1.37886 0 -0.5 -8.632 0.015 0 0 -0.346714 0.0353429 
23 1 -0.134189 0.054519 -1.38041 0 -0.5 -8.63377 0.025 0 0 -1.60516 0.163625 
31 1 -0.140814 -0.145123 -1.31499 0 -0.5 -8.55911 0.025 0 0 -1.60516 0.163625 
150 1 -0.100106 -0.110793 -1.34002 0 -0.5 -8.58776 0.015 0 0 -0.346714 0.0353429 
18 1 -0.106015 0.119686 -1.33788 0 -0.5 -8.58531 0.025 0 0 -1.60516 0.163625 
4 1 -0.0330873 0.132857 -1.33925 0 -0.5 -8.58688 0.025 0 0 -1.60516 0.163625 
106 1 -0.16664 0.295762 -1.33552 -0.0998962 -0.230395 -8.66785 0.015 0 0 -0.346714 0.0353429 
110 1 -0.0868918 -0.155583 -1.26985 0 -0.5 -8.50722 0.015 0 0 -0.346714 0.0353429 
93 1 -0.0244706 -0.143842 -1.247 0 -0.5 -8.48083 0.015 0 0 -0.346714 0.0353429 
17 1 -0.134634 -0.0299735 -1.23548 0 -0.5 -8.46749 0.025 0 0 -1.60516 0.163625 
136 1 -0.0832352 0.0630076 -1.24106 0 -0.5 -8.47396 0.015 0 0 -0.346714 0.0353429 
30 1 -0.0481876 0.0908572 -1.22777 0 -0.5 -8.45856 0.025 0 0 -1.60516 0.163625 
109 1 -0.0676248 0.13808 -1.22956 0 -0.5 -8.46062 0.015 0 0 -0.346714 0.0353429 
1 1 -0.155596 0.410769 -1.20625 -0.021394 -0.0706631 -8.53281 0.025 0 0 -1.60516 0.163625 
108 1 -0.089121 -0.123176 -1.15832 0 -0.5 -8.37763 0.015 0 0 -0.346714 0.0353429 
69 1 -0.020474 -0.102917 -1.12114 0 -0.5 -8.33397 0.015 0 0 -0.346714 0.0353429 
35 1 -0.146938 0.070792 -1.11007 0 -0.5 -8.32093 0.025 0 0 -1.60516 0.163625 
102 1 -0.11709 -0.123101 -1.05866 0 -0.5 -8.2601 0.015 0 0 -0.346714 0.0353429 
14 1 -0.0571303 -0.131025 -1.04076 0 -0.5 -8.23882 0.025 0 0 -1.60516 0.163625 
139 1 -0.104092 -0.065428 -1.05892 0 -0.5 -8.2604 0.015 0 0 -0.346714 0.0353429 
144 1 -0.0691235 -0.0625259 -1.06047 0 -0.5 -8.26226 0.015 0 0 -0.346714 0.0353429 
22 1 -0.102489 0.00230647 -1.06734 0 -0.5 -8.2704 0.025 0 0 -1.60516 0.163625 
141 1 -0.136875 -0.0497358 -1.01634 0 -0.5 -8.20968 0.015 0 0 -0.346714 0.0353429 
55 1 -0.0960019 0.108405 -1.03296 -7.52477e-06 -0.49998 -8.22953 0.015 0 0 -0.346714 0.0353429 
94 1 -0.334588 0.168771 -0.985305 -0.356499 -0.190573 -8.21707 0.015 0 0 -0.346714 0.0353429 
21 1 -0.0470047 0.1535 -0.992252 0 -0.5 -8.18084 0.025 0 0 -1.60516 0.163625 
87 1 -0.113676 0.0715876 -0.967826 0 -0.5 -8.15151 0.015 0 0 -0.346714 0.0353429 
107 1 -0.141609 -0.134052 -0.92419 0 -0.5 -8.09883 0.015 0 0 -0.346714 0.0353429 
147 1 -0.100309 0.141431 -0.898009 0 -0.5 -8.06704 0.015 0 0 -0.346714 0.0353429 
112 1 -0.073338 -0.0507213 -0.881008 0 -0.5 -8.04634 0.015 0 0 -0.346714 0.0353429 
84 1 -0.116406 0.0297863 -0.886716 0 -0.5 -8.05331 0.015 0 0 -0.346714 0.0353429 
142 1 -0.0724928 -0.109252 -0.845217 0 -0.5 -8.00259 0.015 0 0 -0.346714 0.0353429 
47 1 -0.140465 0.11345 -0.845057 0 -0.5 -8.0024 0.025 0 0 -1.60516 0.163625 
145 1 -0.0934491 0.106113 -0.84169 0 -0.5 -7.99828 0.015 0 0 -0.346714 0.0353429 
6 1 -0.048375 -0.0447259 -0.808641 0.101461 -0.428163 -7.96177 0.025 0 0 -1.60516 0.163625 
80 1 -0.102893 0.0768925 -0.815507 0 -0.5 -7.9661 0.015 0 0 -0.346714 0.0353429 
32 1 -0.186496 -0.140076 -0.762853 -0.0613285 -0.540948 -7.89883 0.025 0 0 -1.60516 0.163625 
135 1 -0.140472 -0.0411074 -0.767509 0 -0.5 -7.90675 0.015 0 0 -0.346714 0.0353429 
15 1 -0.0670963 0.0683155 -0.744759 0.0430154 -0.390763 -7.85457 0.025 0 0 -1.60516 0.163625 
62 1 -0.0849655 0.166406 -0.767969 0 -0.5 -7.90734 0.015 0 0 -0.346714 0.0353429 
280 1 -0.149859 0.432045 -0.76388 -0.323138 -0.0374805 -7.96942 0.015 0 0 -0.346714 0.0353429 
138 1 -0.0317395 -0.106684 -0.735962 0 -0.5 -7.86751 0.015 0 0 -0.346714 0.0353429 
128 1 -0.145291 0.0436768 -0.733199 0 -0.5 -7.86407 0.015 0 0 -0.346714 0.0353429 
121 1 -0.0679495 0.148078 -0.699862 0 -0.5 -7.82238 0.015 0 0 -0.346714 0.0353429 
129 1 -0.0553418 -0.0828006 -0.638536 0 -0.5 -7.74508 0.015 0 0 -0.346714 0.0353429 
101 1 -0.102489 0.00982448 -0.6209 0 -0.5 -7.72271 0.015 0 0 -0.346714 0.0353429 
37 1 -0.0716655 0.112665 -0.621828 0 -0.5 -7.72389 0.025 0 0 -1.60516 0.163625 
61 1 -0.0231802 -0.113065 -0.595155 0 -0.5 -7.68995 0.015 0 0 -0.346714 0.0353429 
79 1 -0.0179342 -0.0790157 -0.595009 0 -0.5 -7.68975 0.015 0 0 -0.346714 0.0353429 
13 1 -0.146779 -0.000178933 -0.614096 0 -0.5 -7.71408 0.025 0 0 -1.60516 0.163625 
91 1 -0.124131 0.106132 -0.594239 0 -0.5 -7.68877 0.015 0 0 -0.346714 0.0353429 
46 1 -0.032303 0.174569 -0.613098 0 -0.5 -7.7128 0.025 0 0 -1.60516 0.163625 
52 1 -0.100497 -0.0975105 -0.581339 0 -0.5 -7.67229 0.015 0 0 -0.346714 0.0353429 
5 1 -0.137704 -0.0695882 -0.563401 0 -0.5 -7.64933 0.025 0 0 -1.60516 0.163625 
20 1 -0.124339 0.0578877 -0.568983 0 -0.5 -7.6565 0.025 0 0 -1.60516 0.163625 
7 1 -0.0712578 -0.0305506 -0.557821 0 -0.5 -7.64217 0.025 0 0 -1.60516 0.163625 
86 1 -0.142939 0.0990587 -0.498971 0 -0.5 -7.56624 0.015 0 0 -0.346714 0.0353429 
58 1 -0.0969698 0.00389073 -0.469839 0 -0.5 -7.52838 0.015 0 0 -0.346714 0.0353429 
124 1 -0.136447 0.129377 -0.470057 0 -0.5 -7.52867 0.015 0 0 -0.346714 0.0353429 
9 1 -0.0320364 0.133159 -0.493216 0 -0.5 -7.55879 0.025 0 0 -1.60516 0.163625 
65 1 -0.147981 -0.0929033 -0.446776 0 -0.5 -7.49826 0.015 0 0 -0.346714 0.0353429 
41 1 -0.107908 0.184758 -0.451116 0 -0.5 -7.50395 0.025 0 0 -1.60516 0.163625 
104 1 -0.138444 0.0712171 -0.38406 0 -0.5 -7.41576 0.015 0 0 -0.346714 0.0353429 
131 1 -0.025873 0.17204 -0.400104 0 -0.5 -7.43695 0.015 0 0 -0.346714 0.0353429 
132 1 -0.0234712 -0.0598319 -0.35262 0 -0.5 -7.37407 0.015 0 0 -0.346714 0.0353429 
48 1 -0.144727 -0.00214796 -0.353959 0 -0.5 -7.37583 0.025 0 0 -1.60516 0.163625 
53 1 -0.106432 0.0423403 -0.350408 0 -0.5 -7.37112 0.015 0 0 -0.346714 0.0353429 
49 1 -0.0613084 -0.0822895 -0.319548 0 -0.5 -7.32992 0.025 0 0 -1.60516 0.163625 
16 1 -0.129915 0.141079 -0.314335 0 -0.5 -7.32296 0.025 0 0 -1.60516 0.163625 
82 1 -0.0851821 0.131627 -0.303729 0 -0.5 -7.30873 0.015 0 0 -0.346714 0.0353429 
27 1 -0.0637137 0.167885 -0.313246 0 -0.5 -7.32148 0.025 0 0 -1.60516 0.163625 
63 1 -0.147823 0.197713 -0.288124 0 -0.5 -7.28774 0.015 0 0 -0.346714 0.0353429 
127 1 -0.0304133 -0.0363788 -0.258971 0 -0.5 -7.2484 0.015 0 0 -0.346714 0.0353429 
56 1 -0.11556 0.195119 -0.259196 0 -0.5 -7.24869 0.015 0 0 -0.346714 0.0353429 
25 1 -0.104447 -0.0482147 -0.240082 0 -0.5 -7.22279 0.025 0 0 -1.60516 0.163625 
42 1 -0.132916 0.0447956 -0.216023 0 -0.5 -7.19003 0.025 0 0 -1.60516 0.163625 
123 1 -0.11925 0.101492 -0.209917 0 -0.5 -7.18169 0.015 0 0 -0.346714 0.0353429 
64 1 -0.145219 0.165177 -0.186772 0 -0.5 -7.15 0.015 0 0 -0.346714 0.0353429 
125 1 -0.0960051 0.157127 -0.18368 0 -0.5 -7.14579 0.015 0 0 -0.346714 0.0353429 
392 1 -0.0201822 -0.0846234 -0.159018 0 -0.5 -7.11184 0.015 0 0 -0.346714 0.0353429 
361 1 -0.0655065 -0.0568406 -0.16315 0 -0.5 -7.11753 0.015 0 0 -0.346714 0.0353429 
375 1 -0.132504 -0.0197871 -0.147517 0 -0.5 -7.09595 0.015 0 0 -0.346714 0.0353429 
391 1 -0.0665259 0.14219 -0.160878 0 -0.5 -7.11439 0.015 0 0 -0.346714 0.0353429 
353 1 -0.0778865 -0.00348988 -0.115832 0 -0.5 -7.052 0.015 0 0 -0.346714 0.0353429 
370 1 -0.0476722 0.214061 -0.115884 0 -0.5 -7.0521 0.015 0 0 -0.346714 0.0353429 
449 1 -0.121601 -0.0790298 -0.0775342 0 -0.5 -6.99854 0.015 0 0 -0.346714 0.0353429 
432 1 -0.110656 0.0560228 -0.0956338 0 -0.5 -7.02385 0.015 0 0 -0.346714 0.0353429 
423 1 -0.035066 0.160352 -0.0983631 0 -0.5 -7.02767 0.015 0 0 -0.346714 0.0353429 
348 1 -0.0510039 -0.0716827 -0.0478113 -0.0150753 -0.514502 -6.95439 0.025 0 0 -1.60516 0.163625 
409 1 -0.1116 0.0282793 -0.037324 0 -0.5 -6.94193 0.015 0 0 -0.346714 0.0353429 
434 1 -0.110177 0.188235 -0.0408591 0 -0.5 -6.94694 0.015 0 0 -0.346714 0.0353429 
304 1 -0.147639 0.154299 0.00194993 0 -0.5 -6.88621 0.025 0 0 -1.60516 0.163625 
414 1 -0.12165 0.0984124 0.0520236 0 -0.5 -6.8145 0.015 0 0 -0.346714 0.0353429 
416 1 -0.148865 0.119752 0.0706657 0 -0.5 -6.78762 0.015 0 0 -0.346714 0.0353429 
327 1 -0.047146 0.191396 0.0439897 0 -0.5 -6.82608 0.025 0 0 -1.60516 0.163625 
368 1 -0.0426125 -0.0338969 0.0783962 0 -0.5 -6.77644 0.015 0 0 -0.346714 0.0353429 
328 1 -0.101567 -0.00864044 0.102601 0 -0.5 -6.74132 0.025 0 0 -1.60516 0.163625 
422 1 -0.0856494 0.182628 0.075695 0 -0.5 -6.78036 0.015 0 0 -0.346714 0.0353429 
307 1 -0.141488 -0.0396836 0.119755 0 -0.5 -6.7163 0.025 0 0 -1.60516 0.163625 
342 1 -0.0942786 0.142007 0.104408 0 -0.5 -6.73867 0.025 0 0 -1.60516 0.163625 
441 1 -0.0895132 0.220957 0.120352 0 -0.5 -6.71542 0.015 0 0 -0.346714 0.0353429 
440 1 -0.074831 -0.0573668 0.139721 0 -0.5 -6.68707 0.015 0 0 -0.346714 0.0353429 
352 1 -0.144025 0.179939 0.155886 0 -0.5 -6.66333 0.015 0 0 -0.346714 0.0353429 
330 1 -0.125578 0.236028 0.162469 0 -0.5 -6.65362 0.025 0 0 -1.60516 0.163625 
388 1 -0.0545692 0.00668551 0.181654 0 -0.5 -6.62527 0.015 0 0 -0.346714 0.0353429 
323 1 -0.131477 0.0758135 0.178683 0 -0.5 -6.62968 0.025 0 0 -1.60516 0.163625 
406 1 -0.0920408 0.179666 0.194097 0 -0.5 -6.60683 0.015 0 0 -0.346714 0.0353429 
418 1 -0.0554251 -0.0470597 0.253804 0 -0.5 -6.51755 0.015 0 0 -0.346714 0.0353429 
318 1 -0.126425 0.153158 0.250229 0 -0.5 -6.52295 0.025 0 0 -1.60516 0.163625 
331 1 -0.138106 -0.052169 0.273783 0 -0.5 -6.48744 0.025 0 0 -1.60516 0.163625 
395 1 -0.110093 0.00387207 0.264297 0 -0.5 -6.50176 0.015 0 0 -0.346714 0.0353429 
336 1 -0.025747 0.186523 0.262988 0 -0.5 -6.50372 0.025 0 0 -1.60516 0.163625 
313 1 -0.0392615 -0.00831051 0.293848 0 -0.5 -6.45703 0.025 0 0 -1.60516 0.163625 
374 1 -0.133879 0.213467 0.297384 0 -0.5 -6.45163 0.015 0 0 -0.346714 0.0353429 
315 1 -0.0970947 0.0584065 0.329389 0 -0.5 -6.40278 0.025 0 0 -1.60516 0.163625 
407 1 -0.0713596 0.186089 0.331578 0 -0.5 -6.39944 0.015 0 0 -0.346714 0.0353429 
310 1 -0.0919271 0.223993 0.324975 0 -0.5 -6.40955 0.025 0 0 -1.60516 0.163625 
445 1 -0.0938501 0.128643 0.353021 0 -0.5 -6.36648 0.015 0 0 -0.346714 0.0353429 
377 1 -0.128279 -0.0242797 0.388588 0 -0.5 -6.31145 0.015 0 0 -0.346714 0.0353429 
386 1 -0.118095 0.19711 0.382511 0 -0.5 -6.32086 0.015 0 0 -0.346714 0.0353429 
439 1 -0.132801 0.0918967 0.434449 0 -0.5 -6.23973 0.015 0 0 -0.346714 0.0353429 
344 1 -0.147144 0.129445 0.413237 0 -0.5 -6.27299 0.025 0 0 -1.60516 0.163625 
302 1 -0.0567477 -0.0266837 0.442117 0 -0.5 -6.22767 0.025 0 0 -1.60516 0.163625 
401 1 -0.0913429 0.00478044 0.439067 0 -0.5 -6.23248 0.015 0 0 -0.346714 0.0353429 
314 1 -0.136534 0.0412362 0.455918 0 -0.5 -6.20589 0.025 0 0 -1.60516 0.163625 
355 1 -0.0483468 0.0207585 0.488613 0 -0.5 -6.154 0.015 0 0 -0.346714 0.0353429 
413 1 -0.0512121 0.190816 0.479118 0 -0.5 -6.1691 0.015 0 0 -0.346714 0.0353429 
442 1 -0.149932 0.250171 0.481166 0 -0.5 -6.16587 0.015 0 0 -0.346714 0.0353429 
408 1 -0.087028 0.258439 0.495132 0 -0.5 -6.1436 0.015 0 0 -0.346714 0.0353429 
431 1 -0.13363 0.00165063 0.499858 0 -0.5 -6.13604 0.015 0 0 -0.346714 0.0353429 
354 1 -0.0927402 0.189498 0.497404 0 -0.5 -6.13997 0.015 0 0 -0.346714 0.0353429 
382 1 -0.10106 0.290044 0.508406 0.026541 -0.439017 -6.17919 0.015 0 0 -0.346714 0.0353429 
446 1 -0.116317 0.158626 0.532909 0 -0.5 -6.08297 0.015 0 0 -0.346714 0.0353429 
411 1 -0.0485728 0.241056 0.545124 0 -0.5 -6.06325 0.015 0 0 -0.346714 0.0353429 
427 1 -0.0785505 0.379893 0.533752 0.0988458 -0.172977 -6.21642 0.015 0 0 -0.346714 0.0353429 
350 1 -0.147794 0.0113949 0.615623 0 -0.5 -5.94808 0.025 0 0 -1.60516 0.163625 
399 1 -0.074527 0.0240481 0.597613 0 -0.5 -5.97771 0.015 0 0 -0.346714 0.0353429 
335 1 -0.126459 0.0724178 0.615279 0 -0.5 -5.94867 0.025 0 0 -1.60516 0.163625 
436 1 -0.0854574 0.0789506 0.596596 0 -0.5 -5.97938 0.015 0 0 -0.346714 0.0353429 
341 1 -0.148816 0.192228 0.600783 0 -0.5 -5.97251 0.025 0 0 -1.60516 0.163625 
389 1 -0.0230912 0.265676 0.60258 0 -0.5 -5.96957 0.015 0 0 -0.346714 0.0353429 
384 1 -0.196209 0.294382 0.615482 -0.135564 -0.440896 -5.96251 0.015 0 0 -0.346714 0.0353429 
324 1 -0.0498553 -0.0212968 0.630767 0 -0.5 -5.92307 0.025 0 0 -1.60516 0.163625 
437 1 -0.0723044 0.0552318 0.642419 0 -0.5 -5.90374 0.015 0 0 -0.346714 0.0353429 
385 1 -0.0696212 0.201365 0.62573 0 -0.5 -5.93141 0.015 0 0 -0.346714 0.0353429 
367 1 -0.106717 0.0358308 0.696827 0 -0.5 -5.81261 0.015 0 0 -0.346714 0.0353429 
394 1 -0.145405 0.230684 0.679234 0 -0.5 -5.84223 0.015 0 0 -0.346714 0.0353429 
426 1 -0.0179373 0.260964 0.696199 0 -0.5 -5.81369 0.015 0 0 -0.346714 0.0353429 
424 1 -0.145582 0.280412 0.705832 -0.0730123 -0.390635 -5.80386 0.015 0 0 -0.346714 0.0353429 
358 1 -0.127277 0.00279242 0.718853 0 -0.5 -5.77533 0.015 0 0 -0.346714 0.0353429 
326 1 -0.145564 0.132454 0.721509 0 -0.5 -5.77082 0.025 0 0 -1.60516 0.163625 
319 1 -0.0687817 0.282025 0.714743 0 -0.5 -5.78229 0.025 0 0 -1.60516 0.163625 
376 1 -0.0824761 0.0477717 0.750297 0 -0.5 -5.72167 0.015 0 0 -0.346714 0.0353429 
433 1 -0.118613 -0.0113348 0.788349 0 -0.5 -5.65604 0.015 0 0 -0.346714 0.0353429 
420 1 -0.037203 -0.00317435 0.793899 0 -0.5 -5.64643 0.015 0 0 -0.346714 0.0353429 
402 1 -0.101682 0.032287 0.799254 0 -0.5 -5.63711 0.015 0 0 -0.346714 0.0353429 
306 1 -0.116739 0.210034 0.7975 0 -0.5 -5.64015 0.025 0 0 -1.60516 0.163625 
412 1 -0.0937388 0.280584 0.806237 0 -0.5 -5.62494 0.015 0 0 -0.346714 0.0353429 
363 1 -0.0911777 0.109327 0.834068 0 -0.5 -5.57619 0.015 0 0 -0.346714 0.0353429 
360 1 -0.116599 0.133221 0.831624 0 -0.5 -5.5805 0.015 0 0 -0.346714 0.0353429 
397 1 -0.0557758 0.221618 0.839745 0 -0.5 -5.56618 0.015 0 0 -0.346714 0.0353429 
371 1 -0.0449321 0.260104 0.829102 0 -0.5 -5.58492 0.015 0 0 -0.346714 0.0353429 
322 1 -0.131733 0.0195637 0.880016 0 -0.5 -5.49476 0.025 0 0 -1.60516 0.163625 
396 1 -0.0958984 0.18666 0.883098 0 -0.5 -5.48927 0.015 0 0 -0.346714 0.0353429 
381 1 -0.0827007 0.255114 0.875017 0 -0.5 -5.50369 0.015 0 0 -0.346714 0.0353429 
373 1 -0.136858 0.166184 0.89351 0 -0.5 -5.47063 0.015 0 0 -0.346714 0.0353429 
369 1 -0.138958 0.224563 0.897656 0 -0.5 -5.46318 0.015 0 0 -0.346714 0.0353429 
383 1 -0.0262689 0.242803 0.89925 0 -0.5 -5.46033 0.015 0 0 -0.346714 0.0353429 
308 1 -0.0813599 0.0324912 0.93244 -0.0168546 -0.516386 -5.39913 0.025 0 0 -1.60516 0.163625 
438 1 -0.0987495 0.118333 0.933934 0 -0.5 -5.39764 0.015 0 0 -0.346714 0.0353429 
356 1 -0.111476 0.161564 0.944326 0 -0.5 -5.37871 0.015 0 0 -0.346714 0.0353429 
340 1 -0.149237 0.289237 0.943578 0 -0.5 -5.38008 0.025 0 0 -1.60516 0.163625 
415 1 -0.127182 0.07013 0.964325 0 -0.5 -5.34212 0.015 0 0 -0.346714 0.0353429 
343 1 -0.140775 0.128899 0.974837 0 -0.5 -5.32279 0.025 0 0 -1.60516 0.163625 
443 1 -0.0906469 0.216658 0.961323 0 -0.5 -5.34761 0.015 0 0 -0.346714 0.0353429 
349 1 -0.116564 0.248594 0.980735 0 -0.5 -5.31191 0.025 0 0 -1.60516 0.163625 
351 1 -0.0409452 0.247112 0.98763 0 -0.5 -5.29915 0.015 0 0 -0.346714 0.0353429 
390 1 -0.0988461 0.0305899 1.01992 0 -0.5 -5.23902 0.015 0 0 -0.346714 0.0353429 
448 1 -0.0329565 0.03957 1.05294 0 -0.5 -5.17682 0.015 0 0 -0.346714 0.0353429 
347 1 -0.0548177 0.07689 1.06152 0 -0.5 -5.16054 0.025 0 0 -1.60516 0.163625 
346 1 -0.154673 0.359605 1.06031 -0.0151472 -0.325165 -5.1967 0.025 0 0 -1.60516 0.163625 
419 1 -0.111609 0.0215188 1.09858 0 -0.5 -5.08961 0.015 0 0 -0.346714 0.0353429 
362 1 -0.0154426 0.0716087 1.09429 0 -0.5 -5.09785 0.015 0 0 -0.346714 0.0353429 
378 1 -0.121409 0.125198 1.07157 0 -0.5 -5.14141 0.015 0 0 -0.346714 0.0353429 
312 1 -0.134707 0.184718 1.07323 0 -0.5 -5.13827 0.025 0 0 -1.60516 0.163625 
359 1 -0.107325 0.229399 1.08429 0 -0.5 -5.11708 0.015 0 0 -0.346714 0.0353429 
303 1 -0.0551599 0.248479 1.09492 0 -0.5 -5.09667 0.025 0 0 -1.60516 0.163625 
417 1 -0.0160313 0.284054 1.07321 0 -0.5 -5.13827 0.015 0 0 -0.346714 0.0353429 
421 1 -0.0930175 0.101542 1.11978 0 -0.5 -5.0486 0.015 0 0 -0.346714 0.0353429 
334 1 -0.103439 0.284448 1.11072 0 -0.5 -5.06616 0.025 0 0 -1.60516 0.163625 
325 1 -0.115984 0.141754 1.17481 0.0497405 -0.588401 -4.94688 0.025 0 0 -1.60516 0.163625 
365 1 -0.145489 0.180676 1.18317 -0.198006 -0.434998 -4.82961 0.015 0 0 -0.346714 0.0353429 
320 1 -0.0648735 0.0609287 1.19669 0 -0.5 -4.89684 0.025 0 0 -1.60516 0.163625 
372 1 -0.0702168 0.244237 1.20492 0 -0.5 -4.88036 0.015 0 0 -0.346714 0.0353429 
447 1 -0.122284 0.325789 1.19802 0 -0.5 -4.8942 0.015 0 0 -0.346714 0.0353429 
309 1 -0.144284 0.0600309 1.2202 0 -0.5 -4.84956 0.025 0 0 -1.60516 0.163625 
430 1 -0.123083 0.107393 1.23608 0 -0.5 -4.81728 0.015 0 0 -0.346714 0.0353429 
403 1 -0.0833248 0.113397 1.24076 0 -0.5 -4.80777 0.015 0 0 -0.346714 0.0353429 
387 1 -0.0901615 0.222452 1.22533 0 -0.5 -4.83916 0.015 0 0 -0.346714 0.0353429 
338 1 -0.0583644 0.313556 1.22309 0 -0.5 -4.84367 0.025 0 0 -1.60516 0.163625 
379 1 -0.0327871 0.0623292 1.26338 0 -0.5 -4.76137 0.015 0 0 -0.346714 0.0353429 
393 1 -0.015571 0.284279 1.25772 0 -0.5 -4.77304 0.015 0 0 -0.346714 0.0353429 
357 1 -0.0584785 0.111214 1.30635 0 -0.5 -4.672 0.015 0 0 -0.346714 0.0353429 
316 1 -0.0983119 0.0461107 1.31605 0 -0.5 -4.65159 0.025 0 0 -1.60516 0.163625 
364 1 -0.0453235 0.0768065 1.33499 0 -0.5 -4.61147 0.015 0 0 -0.346714 0.0353429 
321 1 -0.126579 0.117251 1.33656 0 -0.5 -4.60814 0.025 0 0 -1.60516 0.163625 
333 1 -0.0978849 0.179337 1.33808 0 -0.5 -4.6049 0.025 0 0 -1.60516 0.163625 
380 1 -0.127355 0.221976 1.32742 0 -0.5 -4.62756 0.015 0 0 -0.346714 0.0353429 
301 1 -0.0851658 0.283076 1.31825 0.012148 -0.512208 -4.64697 0.025 0 0 -1.60516 0.163625 
428 1 -0.0387226 0.296002 1.32581 0 -0.5 -4.63099 0.015 0 0 -0.346714 0.0353429 
329 1 -0.127181 0.325451 1.31239 -0.0138001 -0.485947 -4.65938 0.025 0 0 -1.60516 0.163625 
450 1 -0.0322061 0.340898 1.32774 0 -0.5 -4.62687 0.015 0 0 -0.346714 0.0353429 
410 1 -0.145474 0.166536 1.34365 0 -0.5 -4.59303 0.015 0 0 -0.346714 0.0353429 
337 1 -0.142368 0.262838 1.36086 0 -0.5 -4.55614 0.025 0 0 -1.60516 0.163625 
332 1 -0.0814262 0.108266 1.42216 0 -0.5 -4.42214 0.025 0 0 -1.60516 0.163625 
400 1 -0.135353 0.151905 1.42796 0 -0.5 -4.40929 0.015 0 0 -0.346714 0.0353429 
425 1 -0.074083 0.0547868 1.44473 0 -0.5 -4.37181 0.015 0 0 -0.346714 0.0353429 
317 1 -0.129905 0.194055 1.45606 0 -0.5 -4.34631 0.025 0 0 -1.60516 0.163625 
366 1 -0.144217 0.271022 1.45227 0 -0.5 -4.35484 0.015 0 0 -0.346714 0.0353429 
339 1 -0.0802774 0.31666 1.4439 0 -0.5 -4.37368 0.025 0 0 -1.60516 0.163625 
305 1 -0.0452536 0.353472 1.44473 0 -0.5 -4.37181 0.025 0 0 -1.60516 0.163625 
544 1 -0.071645 0.442725 1.4363 -0.39021 -0.130746 -4.45525 0.015 0 0 -0.346714 0.0353429 
404 1 -0.119976 0.0758444 1.47926 0 -0.5 -4.29363 0.015 0 0 -0.346714 0.0353429 
311 1 -0.0354402 0.0703675 1.46152 0 -0.5 -4.33395 0.025 0 0 -1.60516 0.163625 
345 1 -0.128178 0.118674 1.47383 0 -0.5 -4.30599 0.025 0 0 -1.60516 0.163625 
435 1 -0.0960728 0.155976 1.47996 0 -0.5 -4.29206 0.015 0 0 -0.346714 0.0353429 
405 1 -0.038992 0.30539 1.46126 0 -0.5 -4.33453 0.015 0 0 -0.346714 0.0353429 
675 1 -0.136314 0.331682 1.51674 -0.0349785 -0.349711 -4.28888 0.015 0 0 -0.346714 0.0353429 
444 1 -0.0159467 0.351826 1.50527 0 -0.5 -4.23379 0.015 0 0 -0.346714 0.0353429 
714 1 -0.0240605 0.120326 1.53642 0 -0.5 -4.161 0.015 0 0 -0.346714 0.0353429 
690 1 -0.0634806 0.318565 1.54239 0 -0.5 -4.14687 0.015 0 0 -0.346714 0.0353429 
634 1 -0.102181 0.340021 1.54443 0 -0.5 -4.14206 0.025 0 0 -1.60516 0.163625 
676 1 -0.132839 0.147867 1.55187 0 -0.5 -4.1244 0.015 0 0 -0.346714 0.0353429 
652 1 -0.0683105 0.152338 1.56624 0 -0.5 -4.09007 0.015 0 0 -0.346714 0.0353429 
629 1 -0.113195 0.199381 1.57766 0 -0.5 -4.0626 0.025 0 0 -1.60516 0.163625 
669 1 -0.0318411 0.329893 1.5696 0 -0.5 -4.08203 0.015 0 0 -0.346714 0.0353429 
608 1 -0.0938106 0.0887933 1.60509 0 -0.5 -3.9958 0.025 0 0 -1.60516 0.163625 
606 1 -0.122506 0.274183 1.60854 0.00210743 -0.508228 -3.98293 0.025 0 0 -1.60516 0.163625 
708 1 -0.0786991 0.313401 1.60689 0 -0.5 -3.99138 0.015 0 0 -0.346714 0.0353429 
701 1 -0.0870486 0.371674 1.61011 0 -0.5 -3.98343 0.015 0 0 -0.346714 0.0353429 
682 1 -0.0469368 0.0847812 1.61287 0 -0.5 -3.97667 0.015 0 0 -0.346714 0.0353429 
657 1 -0.0480729 0.122927 1.62148 0 -0.5 -3.95538 0.015 0 0 -0.346714 0.0353429 
735 1 -0.0832421 0.166669 1.63616 0 -0.5 -3.91879 0.015 0 0 -0.346714 0.0353429 
660 1 -0.0183143 0.326377 1.62475 0 -0.5 -3.94724 0.015 0 0 -0.346714 0.0353429 
709 1 -0.101732 0.215531 1.66796 0 -0.5 -3.83834 0.015 0 0 -0.346714 0.0353429 
707 1 -0.0900659 0.115989 1.69024 0 -0.5 -3.78096 0.015 0 0 -0.346714 0.0353429 
618 1 -0.13283 0.133164 1.67573 0 -0.5 -3.81843 0.025 0 0 -1.60516 0.163625 
649 1 -0.129761 0.249177 1.69131 0 -0.5 -3.77821 0.025 0 0 -1.60516 0.163625 
750 1 -0.0862874 0.280179 1.6776 0 -0.5 -3.81362 0.015 0 0 -0.346714 0.0353429 
640 1 -0.0489559 0.135517 1.71272 0 -0.5 -3.72219 0.025 0 0 -1.60516 0.163625 
680 1 -0.0791761 0.170881 1.70283 0 -0.5 -3.74819 0.015 0 0 -0.346714 0.0353429 
616 1 -0.140255 0.341264 1.71339 0 -0.5 -3.72043 0.025 0 0 -1.60516 0.163625 
725 1 -0.0732043 0.343614 1.73117 0 -0.5 -3.67324 0.015 0 0 -0.346714 0.0353429 
712 1 -0.0372677 0.38655 1.72296 0 -0.5 -3.69512 0.015 0 0 -0.346714 0.0353429 
677 1 -0.113879 0.106303 1.73982 0 -0.5 -3.65009 0.015 0 0 -0.346714 0.0353429 
744 1 -0.107021 0.292725 1.75434 0 -0.5 -3.61085 0.015 0 0 -0.346714 0.0353429 
736 1 -0.0864872 0.199793 1.78027 0 -0.5 -3.53973 0.015 0 0 -0.346714 0.0353429 
685 1 -0.0969629 0.339703 1.77233 0 -0.5 -3.5616 0.015 0 0 -0.346714 0.0353429 
610 1 -0.108705 0.139549 1.81447 0 -0.5 -3.44359 0.025 0 0 -1.60516 0.163625 
692 1 -0.0389882 0.16107 1.80263 0 -0.5 -3.47714 0.015 0 0 -0.346714 0.0353429 
625 1 -0.082959 0.251909 1.80408 0.250947 -0.205125 -3.61301 0.025 0 0 -1.60516 0.163625 
722 1 -0.124711 0.338428 1.8027 0 -0.5 -3.47694 0.015 0 0 -0.346714 0.0353429 
683 1 -0.0829948 0.340592 1.81871 0 -0.5 -3.43152 0.015 0 0 -0.346714 0.0353429 
620 1 -0.0294016 0.371755 1.81158 0 -0.5 -3.45183 0.025 0 0 -1.60516 0.163625 
674 1 -0.11657 0.395544 1.79804 0 -0.5 -3.49009 0.015 0 0 -0.346714 0.0353429 
699 1 -0.0856858 0.39742 1.79591 0 -0.5 -3.49607 0.015 0 0 -0.346714 0.0353429 
748 1 -0.0192599 0.128831 1.83052 0 -0.5 -3.39758 0.015 0 0 -0.346714 0.0353429 
678 1 -0.0973357 0.269233 1.85172 0 -0.5 -3.33578 0.015 0 0 -0.346714 0.0353429 
636 1 -0.149776 0.314476 1.84244 0 -0.5 -3.36295 0.025 0 0 -1.60516 0.163625 
732 1 -0.0691875 0.377647 1.82404 0 -0.5 -3.41622 0.015 0 0 -0.346714 0.0353429 
705 1 -0.0946775 0.117279 1.86818 0 -0.5 -3.28702 0.015 0 0 -0.346714 0.0353429 
641 1 -0.14612 0.182 1.87735 -0.0165282 -0.51578 -3.25123 0.025 0 0 -1.60516 0.163625 
698 1 -0.111785 0.357616 1.8779 0 -0.5 -3.25789 0.015 0 0 -0.346714 0.0353429 
696 1 -0.058387 0.343843 1.8633 0 -0.5 -3.30154 0.015 0 0 -0.346714 0.0353429 
648 1 -0.130879 0.398847 1.87071 0 -0.5 -3.27947 0.025 0 0 -1.60516 0.163625 
644 1 -0.140738 0.127303 1.91005 0 -0.5 -3.15959 0.025 0 0 -1.60516 0.163625 
637 1 -0.0618774 0.148817 1.90302 0 -0.5 -3.18137 0.025 0 0 -1.60516 0.163625 
730 1 -0.0250727 0.129246 1.896 0 -0.5 -3.20295 0.015 0 0 -0.346714 0.0353429 
729 1 -0.0894542 0.179908 1.90514 0 -0.5 -3.1748 0.015 0 0 -0.346714 0.0353429 
694 1 -0.138308 0.281231 1.88763 0 -0.5 -3.22846 0.015 0 0 -0.346714 0.0353429 
733 1 -0.0833844 0.314272 1.88848 0 -0.5 -3.22591 0.015 0 0 -0.346714 0.0353429 
639 1 -0.0631158 0.457302 1.90291 0.113569 0.037071 -3.2494 0.025 0 0 -1.60516 0.163625 
724 1 -0.0903421 0.217009 1.91878 0 -0.5 -3.13242 0.015 0 0 -0.346714 0.0353429 
745 1 -0.0891576 0.272379 1.91774 0.249023 -0.340208 -3.23774 0.015 0 0 -0.346714 0.0353429 
628 1 -0.0904769 0.335614 1.93442 -0.035052 -0.643145 -3.06327 0.025 0 0 -1.60516 0.163625 
684 1 -0.0877228 0.162489 1.953 0 -0.5 -3.02333 0.015 0 0 -0.346714 0.0353429 
627 1 -0.145187 0.239476 1.96151 -0.00145318 -0.500708 -2.99506 0.025 0 0 -1.60516 0.163625 
603 1 -0.121744 0.296127 1.9687 0 -0.5 -2.97193 0.025 0 0 -1.60516 0.163625 
679 1 -0.13837 0.132158 1.9748 0 -0.5 -2.95172 0.015 0 0 -0.346714 0.0353429 
691 1 -0.0734004 0.142526 1.98672 0 -0.5 -2.91189 0.015 0 0 -0.346714 0.0353429 
706 1 -0.129002 0.181926 1.98046 0 -0.5 -2.93288 0.015 0 0 -0.346714 0.0353429 