ITEM: TIMESTEP
90400
ITEM: NUMBER OF ATOMS
1200
ITEM: BOX BOUNDS mm mm mm
-1 1
-1 1
-3.83157 2.85
ITEM: ATOMS id type x y z vx vy vz radius fx fy fz mass 
68 1 -0.0997213 -0.206729 -3.50419 0 -0.5 -10.7801 0.015 0 0 -0.346714 0.0353429 
137 1 -0.0935496 -0.148526 -3.47854 -0.00924354 -0.479856 -10.7572 0.015 0 0 -0.346714 0.0353429 
45 1 -0.0943793 -0.255762 -3.44849 0 -0.5 -10.7293 0.025 0 0 -1.60516 0.163625 
122 1 -0.0656753 -0.20861 -3.44718 0.00811842 -0.517403 -10.7277 0.015 0 0 -0.346714 0.0353429 
33 1 -0.129286 -0.0153953 -3.4604 0 -0.5 -10.7402 0.025 0 0 -1.60516 0.163625 
119 1 -0.0370509 -0.266811 -3.39078 0 -0.5 -10.6764 0.015 0 0 -0.346714 0.0353429 
43 1 -0.116198 -0.104215 -3.40714 0 -0.5 -10.6914 0.025 0 0 -1.60516 0.163625 
111 1 -0.0487783 0.0281 -3.40597 0 -0.5 -10.6903 0.015 0 0 -0.346714 0.0353429 
75 1 -0.0493142 -0.216328 -3.35679 0 -0.5 -10.6451 0.015 0 0 -0.346714 0.0353429 
78 1 -0.0422369 -0.00804492 -3.37554 0 -0.5 -10.6624 0.015 0 0 -0.346714 0.0353429 
89 1 -0.129145 -0.187692 -3.34423 0 -0.5 -10.6335 0.015 0 0 -0.346714 0.0353429 
220 1 -0.0186215 -0.281851 -3.3119 -0.0669262 -0.554313 -10.5999 0.015 0 0 -0.346714 0.0353429 
59 1 -0.0865612 -0.0591322 -3.3164 0 -0.5 -10.6078 0.015 0 0 -0.346714 0.0353429 
92 1 -0.131017 0.0353272 -3.28694 0 -0.5 -10.5806 0.015 0 0 -0.346714 0.0353429 
98 1 -0.147127 -0.115558 -3.17776 0 -0.5 -10.4788 0.015 0 0 -0.346714 0.0353429 
151 1 -0.0686397 -0.033473 -3.1789 0 -0.5 -10.4799 0.015 0 0 -0.346714 0.0353429 
8 1 -0.104188 -0.248537 -3.1447 0 -0.5 -10.4478 0.025 0 0 -1.60516 0.163625 
3 1 -0.141317 -0.0506121 -3.12955 0 -0.5 -10.4336 0.025 0 0 -1.60516 0.163625 
72 1 -0.105673 -0.013204 -3.1034 0 -0.5 -10.409 0.015 0 0 -0.346714 0.0353429 
100 1 -0.0681017 -0.180079 -3.06567 0 -0.5 -10.3734 0.015 0 0 -0.346714 0.0353429 
140 1 -0.125739 -0.138444 -3.07512 0 -0.5 -10.3823 0.015 0 0 -0.346714 0.0353429 
118 1 -0.0372647 0.0216811 -3.05572 0 -0.5 -10.364 0.015 0 0 -0.346714 0.0353429 
40 1 -0.104474 0.0381982 -3.07294 0 -0.5 -10.3802 0.025 0 0 -1.60516 0.163625 
117 1 -0.0596227 -0.236979 -3.02654 0 -0.5 -10.3363 0.015 0 0 -0.346714 0.0353429 
148 1 -0.250232 -0.0533495 -3.0267 -0.171679 -0.397353 -10.3856 0.015 0 0 -0.346714 0.0353429 
51 1 -0.17105 -0.231966 -2.97571 -0.0265052 -0.519812 -10.2844 0.025 0 0 -1.60516 0.163625 
282 1 -0.120936 -0.244657 -2.96279 -0.2609 -0.673185 -10.2642 0.015 0 0 -0.346714 0.0353429 
90 1 -0.146535 0.0396669 -2.91537 0 -0.5 -10.2302 0.015 0 0 -0.346714 0.0353429 
60 1 -0.0770515 -0.228072 -2.8776 0 -0.5 -10.1939 0.015 0 0 -0.346714 0.0353429 
11 1 -0.0886227 -0.0485954 -2.89673 0.022917 -0.457889 -10.2231 0.025 0 0 -1.60516 0.163625 
50 1 -0.130982 -0.00364508 -2.87484 0 -0.5 -10.1913 0.025 0 0 -1.60516 0.163625 
74 1 -0.0790012 -0.0161066 -2.81254 0 -0.5 -10.1312 0.015 0 0 -0.346714 0.0353429 
105 1 -0.344899 -0.0143551 -2.79382 -0.321192 -0.368687 -10.1068 0.015 0 0 -0.346714 0.0353429 
76 1 -0.0202065 0.01207 -2.78412 0 -0.5 -10.1036 0.015 0 0 -0.346714 0.0353429 
44 1 -0.125916 -0.236403 -2.76515 0 -0.5 -10.0852 0.025 0 0 -1.60516 0.163625 
36 1 -0.103411 -0.189688 -2.7267 0 -0.5 -10.0477 0.025 0 0 -1.60516 0.163625 
29 1 -0.0788351 0.0261821 -2.73745 0 -0.5 -10.0582 0.025 0 0 -1.60516 0.163625 
54 1 -0.203256 -0.168795 -2.68231 -0.0956439 -0.529683 -9.99638 0.015 0 0 -0.346714 0.0353429 
114 1 -0.0722163 -0.159386 -2.66311 -0.00040144 -0.499666 -9.98547 0.015 0 0 -0.346714 0.0353429 
73 1 -0.0639552 -0.210233 -2.6087 0 -0.5 -9.93183 0.015 0 0 -0.346714 0.0353429 
113 1 -0.118506 0.0611977 -2.62014 0 -0.5 -9.94311 0.015 0 0 -0.346714 0.0353429 
2 1 -0.110349 -0.0629288 -2.59839 0 -0.5 -9.92162 0.025 0 0 -1.60516 0.163625 
12 1 -0.0363281 0.0463359 -2.57113 0 -0.5 -9.89465 0.025 0 0 -1.60516 0.163625 
146 1 -0.109965 -0.223084 -2.56837 0 -0.5 -9.8919 0.015 0 0 -0.346714 0.0353429 
88 1 -0.0666498 0.00391853 -2.53922 0 -0.5 -9.86296 0.015 0 0 -0.346714 0.0353429 
57 1 -0.120673 -0.106939 -2.51943 0 -0.5 -9.84324 0.015 0 0 -0.346714 0.0353429 
99 1 -0.146283 -0.158483 -2.49632 0 -0.5 -9.82019 0.015 0 0 -0.346714 0.0353429 
10 1 -0.0456839 0.0558462 -2.50457 0.0635655 -0.375939 -9.87688 0.025 0 0 -1.60516 0.163625 
66 1 -0.0281121 -0.171177 -2.41817 0 -0.5 -9.74181 0.015 0 0 -0.346714 0.0353429 
83 1 -0.108229 -0.128854 -2.4324 0 -0.5 -9.75613 0.015 0 0 -0.346714 0.0353429 
19 1 -0.0715757 -0.148748 -2.42549 0 -0.5 -9.74916 0.025 0 0 -1.60516 0.163625 
34 1 -0.138562 0.010511 -2.44285 0 -0.5 -9.76663 0.025 0 0 -1.60516 0.163625 
71 1 -0.145263 0.0541975 -2.40288 0 -0.5 -9.72641 0.015 0 0 -0.346714 0.0353429 
67 1 -0.0183057 -0.215611 -2.37017 0 -0.5 -9.69335 0.015 0 0 -0.346714 0.0353429 
81 1 -0.011119 0.0442467 -2.38722 0.07636 -0.438847 -9.68932 0.015 0 0 -0.346714 0.0353429 
24 1 -0.138394 -0.188548 -2.34664 0 -0.5 -9.66951 0.025 0 0 -1.60516 0.163625 
133 1 -0.127566 -0.0720556 -2.33002 0 -0.5 -9.65263 0.015 0 0 -0.346714 0.0353429 
95 1 -0.10482 0.0153122 -2.32337 0 -0.5 -9.64586 0.015 0 0 -0.346714 0.0353429 
39 1 -0.0696793 0.06501 -2.32317 0 -0.5 -9.64567 0.025 0 0 -1.60516 0.163625 
103 1 -0.135939 -0.144278 -2.27641 0 -0.5 -9.59799 0.015 0 0 -0.346714 0.0353429 
70 1 -0.107191 -0.162076 -2.25312 0 -0.5 -9.57415 0.015 0 0 -0.346714 0.0353429 
143 1 -0.11631 0.0736819 -2.25982 0 -0.5 -9.58102 0.015 0 0 -0.346714 0.0353429 
97 1 -0.0338223 -0.158856 -2.22243 0 -0.5 -9.54266 0.015 0 0 -0.346714 0.0353429 
115 1 -0.076478 -0.123569 -2.22166 0 -0.5 -9.54188 0.015 0 0 -0.346714 0.0353429 
85 1 -0.13789 -0.00198481 -2.21709 0 -0.5 -9.53717 0.015 0 0 -0.346714 0.0353429 
28 1 -0.0685748 -0.18593 -2.20527 0 -0.5 -9.52501 0.025 0 0 -1.60516 0.163625 
134 1 -0.137197 0.0383666 -2.18653 0 -0.5 -9.50568 0.015 0 0 -0.346714 0.0353429 
126 1 -0.133304 -0.0915543 -2.1555 -0.0288748 -0.539424 -9.46051 0.015 0 0 -0.346714 0.0353429 
120 1 -0.148569 0.0872607 -2.16933 0 -0.5 -9.48792 0.015 0 0 -0.346714 0.0353429 
77 1 -0.0297287 0.0667485 -2.17314 0 -0.5 -9.49185 0.015 0 0 -0.346714 0.0353429 
96 1 -0.131998 -0.158919 -2.13628 0 -0.5 -9.45369 0.015 0 0 -0.346714 0.0353429 
38 1 -0.121616 -0.117812 -2.0977 0 -0.5 -9.41356 0.025 0 0 -1.60516 0.163625 
130 1 -0.0642546 -0.123559 -2.02579 0 -0.5 -9.33832 0.015 0 0 -0.346714 0.0353429 
23 1 -0.134189 0.018519 -2.02746 0 -0.5 -9.34009 0.025 0 0 -1.60516 0.163625 
150 1 -0.100106 -0.146793 -1.98377 0 -0.5 -9.29408 0.015 0 0 -0.346714 0.0353429 
18 1 -0.106015 0.083686 -1.98145 0 -0.5 -9.29163 0.025 0 0 -1.60516 0.163625 
4 1 -0.0330873 0.0968569 -1.98293 0 -0.5 -9.2932 0.025 0 0 -1.60516 0.163625 
106 1 -0.173832 0.279174 -1.98503 -0.0998962 -0.230395 -9.37417 0.015 0 0 -0.346714 0.0353429 
31 1 -0.140814 -0.181123 -1.95667 0 -0.5 -9.26543 0.025 0 0 -1.60516 0.163625 
110 1 -0.0868918 -0.191583 -1.9078 0 -0.5 -9.21354 0.015 0 0 -0.346714 0.0353429 
93 1 -0.0244706 -0.179842 -1.88305 0 -0.5 -9.18715 0.015 0 0 -0.346714 0.0353429 
136 1 -0.0832352 0.0270076 -1.87662 0 -0.5 -9.18028 0.015 0 0 -0.346714 0.0353429 
17 1 -0.134634 -0.0659735 -1.87056 0 -0.5 -9.17381 0.025 0 0 -1.60516 0.163625 
30 1 -0.0481876 0.0548572 -1.86222 0 -0.5 -9.16488 0.025 0 0 -1.60516 0.163625 
109 1 -0.0676248 0.10208 -1.86415 0 -0.5 -9.16694 0.015 0 0 -0.346714 0.0353429 
1 1 -0.157137 0.405681 -1.84604 -0.021394 -0.0706631 -9.23913 0.025 0 0 -1.60516 0.163625 
108 1 -0.089121 -0.159176 -1.78694 0 -0.5 -9.08395 0.015 0 0 -0.346714 0.0353429 
69 1 -0.020474 -0.138917 -1.74662 0 -0.5 -9.04029 0.015 0 0 -0.346714 0.0353429 
35 1 -0.146938 0.034792 -1.73461 0 -0.5 -9.02725 0.025 0 0 -1.60516 0.163625 
102 1 -0.11709 -0.159101 -1.67881 0 -0.5 -8.96642 0.015 0 0 -0.346714 0.0353429 
139 1 -0.104092 -0.101428 -1.67909 0 -0.5 -8.96672 0.015 0 0 -0.346714 0.0353429 
144 1 -0.0691235 -0.0985259 -1.68078 0 -0.5 -8.96858 0.015 0 0 -0.346714 0.0353429 
22 1 -0.102489 -0.0336935 -1.68824 0 -0.5 -8.97672 0.025 0 0 -1.60516 0.163625 
14 1 -0.0571303 -0.167025 -1.65939 0 -0.5 -8.94514 0.025 0 0 -1.60516 0.163625 
55 1 -0.0960024 0.0724068 -1.65092 -7.52477e-06 -0.49998 -8.93585 0.015 0 0 -0.346714 0.0353429 
141 1 -0.136875 -0.0857358 -1.63286 0 -0.5 -8.916 0.015 0 0 -0.346714 0.0353429 
21 1 -0.0470047 0.1175 -1.6067 0 -0.5 -8.88716 0.025 0 0 -1.60516 0.163625 
87 1 -0.113676 0.0355876 -1.58016 0 -0.5 -8.85783 0.015 0 0 -0.346714 0.0353429 
94 1 -0.360256 0.15505 -1.60236 -0.356499 -0.190573 -8.92339 0.015 0 0 -0.346714 0.0353429 
107 1 -0.141609 -0.170052 -1.53273 0 -0.5 -8.80515 0.015 0 0 -0.346714 0.0353429 
112 1 -0.073338 -0.0867213 -1.48577 0 -0.5 -8.75266 0.015 0 0 -0.346714 0.0353429 
84 1 -0.116406 -0.00621368 -1.49198 0 -0.5 -8.75963 0.015 0 0 -0.346714 0.0353429 
147 1 -0.100309 0.105431 -1.50426 0 -0.5 -8.77336 0.015 0 0 -0.346714 0.0353429 
142 1 -0.0724928 -0.145252 -1.44683 0 -0.5 -8.70891 0.015 0 0 -0.346714 0.0353429 
47 1 -0.140465 0.0774497 -1.44666 0 -0.5 -8.70872 0.025 0 0 -1.60516 0.163625 
145 1 -0.0934491 0.0701128 -1.44299 0 -0.5 -8.7046 0.015 0 0 -0.346714 0.0353429 
6 1 -0.0410698 -0.0755537 -1.40732 0.101461 -0.428163 -8.66809 0.025 0 0 -1.60516 0.163625 
80 1 -0.102893 0.0408925 -1.41449 0 -0.5 -8.67242 0.015 0 0 -0.346714 0.0353429 
135 1 -0.140472 -0.0771074 -1.36222 0 -0.5 -8.61307 0.015 0 0 -0.346714 0.0353429 
62 1 -0.0849655 0.130406 -1.36272 0 -0.5 -8.61366 0.015 0 0 -0.346714 0.0353429 
280 1 -0.173125 0.429346 -1.36311 -0.323138 -0.0374805 -8.67574 0.015 0 0 -0.346714 0.0353429 
32 1 -0.190911 -0.179025 -1.357 -0.0613285 -0.540948 -8.60515 0.025 0 0 -1.60516 0.163625 
15 1 -0.0639992 0.0401806 -1.33572 0.0430154 -0.390763 -8.56089 0.025 0 0 -1.60516 0.163625 
138 1 -0.0317395 -0.142684 -1.32785 0 -0.5 -8.57383 0.015 0 0 -0.346714 0.0353429 
128 1 -0.145291 0.0076768 -1.32484 0 -0.5 -8.57039 0.015 0 0 -0.346714 0.0353429 
121 1 -0.0679495 0.112078 -1.2885 0 -0.5 -8.5287 0.015 0 0 -0.346714 0.0353429 
129 1 -0.0553418 -0.118801 -1.22161 0 -0.5 -8.4514 0.015 0 0 -0.346714 0.0353429 
13 1 -0.146779 -0.0361789 -1.19494 0 -0.5 -8.4204 0.025 0 0 -1.60516 0.163625 
101 1 -0.102489 -0.0261755 -1.20236 0 -0.5 -8.42903 0.015 0 0 -0.346714 0.0353429 
37 1 -0.0716655 0.0766653 -1.20338 0 -0.5 -8.43021 0.025 0 0 -1.60516 0.163625 
46 1 -0.032303 0.138569 -1.19385 0 -0.5 -8.41912 0.025 0 0 -1.60516 0.163625 
52 1 -0.100497 -0.13351 -1.15917 0 -0.5 -8.37861 0.015 0 0 -0.346714 0.0353429 
61 1 -0.0231802 -0.149065 -1.17426 0 -0.5 -8.39627 0.015 0 0 -0.346714 0.0353429 
79 1 -0.0179342 -0.115016 -1.1741 0 -0.5 -8.39607 0.015 0 0 -0.346714 0.0353429 
91 1 -0.124131 0.070132 -1.17326 0 -0.5 -8.39509 0.015 0 0 -0.346714 0.0353429 
5 1 -0.137704 -0.105588 -1.13958 0 -0.5 -8.35565 0.025 0 0 -1.60516 0.163625 
7 1 -0.0712578 -0.0665506 -1.13348 0 -0.5 -8.34849 0.025 0 0 -1.60516 0.163625 
20 1 -0.124339 0.0218877 -1.14568 0 -0.5 -8.36282 0.025 0 0 -1.60516 0.163625 
86 1 -0.142939 0.0630587 -1.06917 0 -0.5 -8.27256 0.015 0 0 -0.346714 0.0353429 
9 1 -0.0320364 0.0971587 -1.06288 0 -0.5 -8.26511 0.025 0 0 -1.60516 0.163625 
58 1 -0.0969698 -0.0321093 -1.03731 0 -0.5 -8.2347 0.015 0 0 -0.346714 0.0353429 
124 1 -0.136447 0.0933765 -1.03755 0 -0.5 -8.23499 0.015 0 0 -0.346714 0.0353429 
65 1 -0.147981 -0.128903 -1.01208 0 -0.5 -8.20458 0.015 0 0 -0.346714 0.0353429 
41 1 -0.107908 0.148758 -1.01683 0 -0.5 -8.21027 0.025 0 0 -1.60516 0.163625 
104 1 -0.138444 0.0352171 -0.943422 0 -0.5 -8.12208 0.015 0 0 -0.346714 0.0353429 
131 1 -0.025873 0.13604 -0.960992 0 -0.5 -8.14327 0.015 0 0 -0.346714 0.0353429 
132 1 -0.0234712 -0.0958319 -0.90898 0 -0.5 -8.08039 0.015 0 0 -0.346714 0.0353429 
48 1 -0.144727 -0.038148 -0.910446 0 -0.5 -8.08215 0.025 0 0 -1.60516 0.163625 
53 1 -0.106432 0.00634029 -0.906556 0 -0.5 -8.07744 0.015 0 0 -0.346714 0.0353429 
49 1 -0.0613084 -0.11829 -0.87273 0 -0.5 -8.03624 0.025 0 0 -1.60516 0.163625 
16 1 -0.129915 0.105079 -0.867015 0 -0.5 -8.02928 0.025 0 0 -1.60516 0.163625 
82 1 -0.0851821 0.0956269 -0.855385 0 -0.5 -8.01505 0.015 0 0 -0.346714 0.0353429 
27 1 -0.0637137 0.131885 -0.865821 0 -0.5 -8.0278 0.025 0 0 -1.60516 0.163625 
63 1 -0.147823 0.161713 -0.838269 0 -0.5 -7.99406 0.015 0 0 -0.346714 0.0353429 
127 1 -0.0304133 -0.0723788 -0.806284 0 -0.5 -7.95472 0.015 0 0 -0.346714 0.0353429 
56 1 -0.11556 0.159119 -0.80653 0 -0.5 -7.95501 0.015 0 0 -0.346714 0.0353429 
25 1 -0.104447 -0.0842147 -0.78555 0 -0.5 -7.92911 0.025 0 0 -1.60516 0.163625 
42 1 -0.132916 0.00879564 -0.759132 0 -0.5 -7.89635 0.025 0 0 -1.60516 0.163625 
123 1 -0.11925 0.0654922 -0.752426 0 -0.5 -7.88801 0.015 0 0 -0.346714 0.0353429 
361 1 -0.0655065 -0.0928406 -0.70104 0 -0.5 -7.82385 0.015 0 0 -0.346714 0.0353429 
391 1 -0.0665259 0.10619 -0.698542 0 -0.5 -7.82071 0.015 0 0 -0.346714 0.0353429 
64 1 -0.145219 0.129177 -0.726999 0 -0.5 -7.85632 0.015 0 0 -0.346714 0.0353429 
125 1 -0.0960051 0.121127 -0.723604 0 -0.5 -7.85211 0.015 0 0 -0.346714 0.0353429 
392 1 -0.0201822 -0.120623 -0.696498 0 -0.5 -7.81816 0.015 0 0 -0.346714 0.0353429 
375 1 -0.132504 -0.0557871 -0.683853 0 -0.5 -7.80227 0.015 0 0 -0.346714 0.0353429 
353 1 -0.0778865 -0.0394899 -0.649004 0 -0.5 -7.75832 0.015 0 0 -0.346714 0.0353429 
370 1 -0.0476722 0.178061 -0.649062 0 -0.5 -7.75842 0.015 0 0 -0.346714 0.0353429 
449 1 -0.121601 -0.11503 -0.606856 0 -0.5 -7.70486 0.015 0 0 -0.346714 0.0353429 
432 1 -0.110656 0.0200228 -0.626778 0 -0.5 -7.73017 0.015 0 0 -0.346714 0.0353429 
423 1 -0.035066 0.124352 -0.629783 0 -0.5 -7.73399 0.015 0 0 -0.346714 0.0353429 
348 1 -0.0520893 -0.108727 -0.573955 -0.0150753 -0.514502 -7.66071 0.025 0 0 -1.60516 0.163625 
409 1 -0.1116 -0.00772068 -0.562571 0 -0.5 -7.64825 0.015 0 0 -0.346714 0.0353429 
434 1 -0.110177 0.152235 -0.566466 0 -0.5 -7.65326 0.015 0 0 -0.346714 0.0353429 
304 1 -0.147639 0.118299 -0.519285 0 -0.5 -7.59253 0.025 0 0 -1.60516 0.163625 
414 1 -0.12165 0.0624124 -0.464048 0 -0.5 -7.52082 0.015 0 0 -0.346714 0.0353429 
327 1 -0.047146 0.155396 -0.472915 0 -0.5 -7.5324 0.025 0 0 -1.60516 0.163625 
368 1 -0.0426125 -0.0698969 -0.434935 0 -0.5 -7.48276 0.015 0 0 -0.346714 0.0353429 
416 1 -0.148865 0.0837519 -0.443471 0 -0.5 -7.49394 0.015 0 0 -0.346714 0.0353429 
422 1 -0.0856494 0.146628 -0.437919 0 -0.5 -7.48668 0.015 0 0 -0.346714 0.0353429 
328 1 -0.101567 -0.0446404 -0.408202 0 -0.5 -7.44764 0.025 0 0 -1.60516 0.163625 
342 1 -0.0942786 0.106007 -0.406203 0 -0.5 -7.44499 0.025 0 0 -1.60516 0.163625 
440 1 -0.074831 -0.0933668 -0.367176 0 -0.5 -7.39339 0.015 0 0 -0.346714 0.0353429 
307 1 -0.141488 -0.0756836 -0.389246 0 -0.5 -7.42262 0.025 0 0 -1.60516 0.163625 
441 1 -0.0895132 0.184957 -0.388586 0 -0.5 -7.42174 0.015 0 0 -0.346714 0.0353429 
352 1 -0.144025 0.143939 -0.349301 0 -0.5 -7.36965 0.015 0 0 -0.346714 0.0353429 
330 1 -0.125578 0.200028 -0.342019 0 -0.5 -7.35994 0.025 0 0 -1.60516 0.163625 
388 1 -0.0545692 -0.0293145 -0.320793 0 -0.5 -7.33159 0.015 0 0 -0.346714 0.0353429 
323 1 -0.131477 0.0398135 -0.324082 0 -0.5 -7.336 0.025 0 0 -1.60516 0.163625 
406 1 -0.0920408 0.143666 -0.307022 0 -0.5 -7.31315 0.015 0 0 -0.346714 0.0353429 
318 1 -0.126425 0.117158 -0.244851 0 -0.5 -7.22927 0.025 0 0 -1.60516 0.163625 
331 1 -0.138106 -0.088169 -0.21874 0 -0.5 -7.19376 0.025 0 0 -1.60516 0.163625 
418 1 -0.0554251 -0.0830597 -0.240887 0 -0.5 -7.22387 0.015 0 0 -0.346714 0.0353429 
395 1 -0.110093 -0.0321279 -0.229257 0 -0.5 -7.20808 0.015 0 0 -0.346714 0.0353429 
336 1 -0.025747 0.150523 -0.230708 0 -0.5 -7.21004 0.025 0 0 -1.60516 0.163625 
313 1 -0.0392615 -0.0443105 -0.196486 0 -0.5 -7.16335 0.025 0 0 -1.60516 0.163625 
374 1 -0.133879 0.177467 -0.192561 0 -0.5 -7.15795 0.015 0 0 -0.346714 0.0353429 
315 1 -0.0970947 0.0224065 -0.157038 0 -0.5 -7.1091 0.025 0 0 -1.60516 0.163625 
407 1 -0.0713596 0.150089 -0.154609 0 -0.5 -7.10576 0.015 0 0 -0.346714 0.0353429 
310 1 -0.0919271 0.187993 -0.16194 0 -0.5 -7.11587 0.025 0 0 -1.60516 0.163625 
445 1 -0.0938501 0.0926432 -0.130793 0 -0.5 -7.0728 0.015 0 0 -0.346714 0.0353429 
386 1 -0.118095 0.16111 -0.0980182 0 -0.5 -7.02718 0.015 0 0 -0.346714 0.0353429 
377 1 -0.128279 -0.0602797 -0.0912636 0 -0.5 -7.01777 0.015 0 0 -0.346714 0.0353429 
344 1 -0.147144 0.0934448 -0.0638457 0 -0.5 -6.97931 0.025 0 0 -1.60516 0.163625 
401 1 -0.0913429 -0.0312196 -0.0350983 0 -0.5 -6.9388 0.015 0 0 -0.346714 0.0353429 
439 1 -0.132801 0.0558967 -0.0402392 0 -0.5 -6.94605 0.015 0 0 -0.346714 0.0353429 
302 1 -0.0567477 -0.0626837 -0.0317025 0 -0.5 -6.93399 0.025 0 0 -1.60516 0.163625 
314 1 -0.136534 0.00523622 -0.0163336 0 -0.5 -6.91221 0.025 0 0 -1.60516 0.163625 
355 1 -0.0483468 -0.0152415 0.0200974 0 -0.5 -6.86032 0.015 0 0 -0.346714 0.0353429 
413 1 -0.0512121 0.154816 0.00951546 0 -0.5 -6.87542 0.015 0 0 -0.346714 0.0353429 
442 1 -0.149932 0.214171 0.0117963 0 -0.5 -6.87219 0.015 0 0 -0.346714 0.0353429 
408 1 -0.087028 0.222439 0.0273657 0 -0.5 -6.84992 0.015 0 0 -0.346714 0.0353429 
431 1 -0.13363 -0.0343494 0.0326357 0 -0.5 -6.84236 0.015 0 0 -0.346714 0.0353429 
354 1 -0.0927402 0.153498 0.029899 0 -0.5 -6.84629 0.015 0 0 -0.346714 0.0353429 
382 1 -0.0991486 0.258435 0.0380767 0.026541 -0.439017 -6.88551 0.015 0 0 -0.346714 0.0353429 
446 1 -0.116317 0.122626 0.0695077 0 -0.5 -6.78929 0.015 0 0 -0.346714 0.0353429 
411 1 -0.0485728 0.205056 0.0831426 0 -0.5 -6.76957 0.015 0 0 -0.346714 0.0353429 
427 1 -0.0714336 0.367438 0.0607417 0.0988458 -0.172977 -6.92274 0.015 0 0 -0.346714 0.0353429 
399 1 -0.074527 -0.0119519 0.14179 0 -0.5 -6.68403 0.015 0 0 -0.346714 0.0353429 
436 1 -0.0854574 0.0429506 0.140653 0 -0.5 -6.6857 0.015 0 0 -0.346714 0.0353429 
341 1 -0.148816 0.156228 0.145335 0 -0.5 -6.67883 0.025 0 0 -1.60516 0.163625 
389 1 -0.0230912 0.229676 0.147343 0 -0.5 -6.67589 0.015 0 0 -0.346714 0.0353429 
324 1 -0.0498553 -0.0572968 0.178879 0 -0.5 -6.62939 0.025 0 0 -1.60516 0.163625 
350 1 -0.147794 -0.0246051 0.161933 0 -0.5 -6.6544 0.025 0 0 -1.60516 0.163625 
335 1 -0.126459 0.0364178 0.161547 0 -0.5 -6.65499 0.025 0 0 -1.60516 0.163625 
385 1 -0.0696212 0.165365 0.173241 0 -0.5 -6.63773 0.015 0 0 -0.346714 0.0353429 
384 1 -0.20597 0.262637 0.160753 -0.135564 -0.440896 -6.66883 0.015 0 0 -0.346714 0.0353429 
437 1 -0.0723044 0.0192318 0.191922 0 -0.5 -6.61006 0.015 0 0 -0.346714 0.0353429 
394 1 -0.145405 0.194684 0.233165 0 -0.5 -6.54855 0.015 0 0 -0.346714 0.0353429 
367 1 -0.106717 -0.000169224 0.252891 0 -0.5 -6.51893 0.015 0 0 -0.346714 0.0353429 
426 1 -0.0179373 0.224964 0.252186 0 -0.5 -6.52001 0.015 0 0 -0.346714 0.0353429 
424 1 -0.150838 0.252286 0.262527 -0.0730123 -0.390635 -6.51018 0.015 0 0 -0.346714 0.0353429 
358 1 -0.127277 -0.0332076 0.277602 0 -0.5 -6.48165 0.015 0 0 -0.346714 0.0353429 
326 1 -0.145564 0.096454 0.280583 0 -0.5 -6.47714 0.025 0 0 -1.60516 0.163625 
319 1 -0.0687817 0.246025 0.27299 0 -0.5 -6.48861 0.025 0 0 -1.60516 0.163625 
376 1 -0.0824761 0.0117717 0.312909 0 -0.5 -6.42799 0.015 0 0 -0.346714 0.0353429 
433 1 -0.118613 -0.0473348 0.355687 0 -0.5 -6.36236 0.015 0 0 -0.346714 0.0353429 
420 1 -0.037203 -0.0391744 0.361929 0 -0.5 -6.35275 0.015 0 0 -0.346714 0.0353429 
402 1 -0.101682 -0.00371296 0.367955 0 -0.5 -6.34343 0.015 0 0 -0.346714 0.0353429 
306 1 -0.116739 0.174034 0.365981 0 -0.5 -6.34647 0.025 0 0 -1.60516 0.163625 
412 1 -0.0937388 0.244584 0.375813 0 -0.5 -6.33126 0.015 0 0 -0.346714 0.0353429 
363 1 -0.0911777 0.0733271 0.407155 0 -0.5 -6.28251 0.015 0 0 -0.346714 0.0353429 
360 1 -0.116599 0.0972209 0.4044 0 -0.5 -6.28682 0.015 0 0 -0.346714 0.0353429 
397 1 -0.0557758 0.185618 0.413552 0 -0.5 -6.2725 0.015 0 0 -0.346714 0.0353429 
371 1 -0.0449321 0.224104 0.401561 0 -0.5 -6.29124 0.015 0 0 -0.346714 0.0353429 
322 1 -0.131733 -0.0164363 0.458965 0 -0.5 -6.20108 0.025 0 0 -1.60516 0.163625 
373 1 -0.136858 0.130184 0.474197 0 -0.5 -6.17695 0.015 0 0 -0.346714 0.0353429 
396 1 -0.0958984 0.15066 0.462443 0 -0.5 -6.19559 0.015 0 0 -0.346714 0.0353429 
369 1 -0.138958 0.188563 0.47888 0 -0.5 -6.1695 0.015 0 0 -0.346714 0.0353429 
383 1 -0.0262689 0.206803 0.480679 0 -0.5 -6.16665 0.015 0 0 -0.346714 0.0353429 
381 1 -0.0827007 0.219114 0.453324 0 -0.5 -6.21001 0.015 0 0 -0.346714 0.0353429 
308 1 -0.0825734 -0.00468862 0.518275 -0.0168546 -0.516386 -6.10545 0.025 0 0 -1.60516 0.163625 
438 1 -0.0987495 0.0823327 0.519876 0 -0.5 -6.10396 0.015 0 0 -0.346714 0.0353429 
356 1 -0.111476 0.125564 0.531632 0 -0.5 -6.08503 0.015 0 0 -0.346714 0.0353429 
340 1 -0.149237 0.253237 0.530784 0 -0.5 -6.0864 0.025 0 0 -1.60516 0.163625 
415 1 -0.127182 0.03413 0.554264 0 -0.5 -6.04844 0.015 0 0 -0.346714 0.0353429 
343 1 -0.140775 0.0928986 0.566168 0 -0.5 -6.02911 0.025 0 0 -1.60516 0.163625 
443 1 -0.0906469 0.180658 0.550868 0 -0.5 -6.05393 0.015 0 0 -0.346714 0.0353429 
349 1 -0.116564 0.212594 0.57285 0 -0.5 -6.01823 0.025 0 0 -1.60516 0.163625 
351 1 -0.0409452 0.211112 0.580664 0 -0.5 -6.00547 0.015 0 0 -0.346714 0.0353429 
390 1 -0.0988461 -0.00541014 0.617286 0 -0.5 -5.94534 0.015 0 0 -0.346714 0.0353429 
539 1 -0.0114985 0.475888 0.619358 -0.32393 0.0458257 -6.0403 0.015 0 0 -0.346714 0.0353429 
448 1 -0.0329565 0.00356999 0.654782 0 -0.5 -5.88314 0.015 0 0 -0.346714 0.0353429 
346 1 -0.155764 0.336193 0.660725 -0.0151472 -0.325165 -5.90302 0.025 0 0 -1.60516 0.163625 
347 1 -0.0548177 0.04089 0.664538 0 -0.5 -5.86686 0.025 0 0 -1.60516 0.163625 
378 1 -0.121409 0.0891982 0.675961 0 -0.5 -5.84773 0.015 0 0 -0.346714 0.0353429 
312 1 -0.134707 0.148718 0.677843 0 -0.5 -5.84459 0.025 0 0 -1.60516 0.163625 
359 1 -0.107325 0.193399 0.690434 0 -0.5 -5.8234 0.015 0 0 -0.346714 0.0353429 
417 1 -0.0160313 0.248054 0.67783 0 -0.5 -5.84459 0.015 0 0 -0.346714 0.0353429 
419 1 -0.111609 -0.0144812 0.706705 0 -0.5 -5.79593 0.015 0 0 -0.346714 0.0353429 
362 1 -0.0154426 0.0356087 0.701821 0 -0.5 -5.80417 0.015 0 0 -0.346714 0.0353429 
303 1 -0.0551599 0.212479 0.70253 0 -0.5 -5.80299 0.025 0 0 -1.60516 0.163625 
334 1 -0.103439 0.248448 0.720533 0 -0.5 -5.77248 0.025 0 0 -1.60516 0.163625 
421 1 -0.0930175 0.0655422 0.730853 0 -0.5 -5.75492 0.015 0 0 -0.346714 0.0353429 
325 1 -0.112402 0.0993894 0.793209 0.0497405 -0.588401 -5.6532 0.025 0 0 -1.60516 0.163625 
365 1 -0.159746 0.149356 0.810006 -0.198006 -0.434998 -5.53593 0.015 0 0 -0.346714 0.0353429 
320 1 -0.0648735 0.0249287 0.81869 0 -0.5 -5.60316 0.025 0 0 -1.60516 0.163625 
372 1 -0.0702168 0.208237 0.828104 0 -0.5 -5.58668 0.015 0 0 -0.346714 0.0353429 
447 1 -0.122284 0.289789 0.820215 0 -0.5 -5.60052 0.015 0 0 -0.346714 0.0353429 
309 1 -0.144284 0.0240309 0.845601 0 -0.5 -5.55588 0.025 0 0 -1.60516 0.163625 
430 1 -0.123083 0.0713929 0.863807 0 -0.5 -5.5236 0.015 0 0 -0.346714 0.0353429 
403 1 -0.0833248 0.077397 0.869175 0 -0.5 -5.51409 0.015 0 0 -0.346714 0.0353429 
387 1 -0.0901615 0.186452 0.851485 0 -0.5 -5.54548 0.015 0 0 -0.346714 0.0353429 
338 1 -0.0583644 0.277556 0.848921 0 -0.5 -5.54999 0.025 0 0 -1.60516 0.163625 
379 1 -0.0327871 0.0263292 0.895139 0 -0.5 -5.46769 0.015 0 0 -0.346714 0.0353429 
393 1 -0.015571 0.248279 0.888634 0 -0.5 -5.47936 0.015 0 0 -0.346714 0.0353429 
316 1 -0.0983119 0.0101107 0.955712 0 -0.5 -5.35791 0.025 0 0 -1.60516 0.163625 
357 1 -0.0584785 0.0752145 0.944541 0 -0.5 -5.37832 0.015 0 0 -0.346714 0.0353429 
301 1 -0.0842911 0.246197 0.958243 0.012148 -0.512208 -5.35329 0.025 0 0 -1.60516 0.163625 
329 1 -0.128175 0.290463 0.951487 -0.0138001 -0.485947 -5.3657 0.025 0 0 -1.60516 0.163625 
364 1 -0.0453235 0.0408065 0.97754 0 -0.5 -5.31779 0.015 0 0 -0.346714 0.0353429 
321 1 -0.126579 0.0812512 0.979345 0 -0.5 -5.31446 0.025 0 0 -1.60516 0.163625 
410 1 -0.145474 0.130536 0.987525 0 -0.5 -5.29935 0.015 0 0 -0.346714 0.0353429 
333 1 -0.0978849 0.143337 0.981098 0 -0.5 -5.31122 0.025 0 0 -1.60516 0.163625 
380 1 -0.127355 0.185976 0.968804 0 -0.5 -5.33388 0.015 0 0 -0.346714 0.0353429 
428 1 -0.0387226 0.260002 0.966951 0 -0.5 -5.33731 0.015 0 0 -0.346714 0.0353429 
450 1 -0.0322061 0.304898 0.969178 0 -0.5 -5.33319 0.015 0 0 -0.346714 0.0353429 
337 1 -0.142368 0.226838 1.00739 0 -0.5 -5.26246 0.025 0 0 -1.60516 0.163625 
332 1 -0.0814262 0.072266 1.07834 0 -0.5 -5.12846 0.025 0 0 -1.60516 0.163625 
400 1 -0.135353 0.115905 1.08507 0 -0.5 -5.11561 0.015 0 0 -0.346714 0.0353429 
425 1 -0.074083 0.0187868 1.10453 0 -0.5 -5.07813 0.015 0 0 -0.346714 0.0353429 
366 1 -0.144217 0.235022 1.1133 0 -0.5 -5.06116 0.015 0 0 -0.346714 0.0353429 
339 1 -0.0802774 0.28066 1.10356 0 -0.5 -5.08 0.025 0 0 -1.60516 0.163625 
305 1 -0.0452536 0.317472 1.10453 0 -0.5 -5.07813 0.025 0 0 -1.60516 0.163625 
544 1 -0.0997401 0.433311 1.0901 -0.39021 -0.130746 -5.16157 0.015 0 0 -0.346714 0.0353429 
404 1 -0.119976 0.0398444 1.14469 0 -0.5 -4.99995 0.015 0 0 -0.346714 0.0353429 
311 1 -0.0354402 0.0343675 1.12405 0 -0.5 -5.04027 0.025 0 0 -1.60516 0.163625 
345 1 -0.128178 0.0826745 1.13837 0 -0.5 -5.01231 0.025 0 0 -1.60516 0.163625 
435 1 -0.0960728 0.119976 1.1455 0 -0.5 -4.99838 0.015 0 0 -0.346714 0.0353429 
317 1 -0.129905 0.158055 1.1177 0 -0.5 -5.05263 0.025 0 0 -1.60516 0.163625 
405 1 -0.038992 0.26939 1.12375 0 -0.5 -5.04085 0.015 0 0 -0.346714 0.0353429 
444 1 -0.0159467 0.315826 1.17501 0 -0.5 -4.94011 0.015 0 0 -0.346714 0.0353429 
675 1 -0.138832 0.306502 1.18252 -0.0349785 -0.349711 -4.9952 0.015 0 0 -0.346714 0.0353429 
714 1 -0.0240605 0.084326 1.2114 0 -0.5 -4.86732 0.015 0 0 -0.346714 0.0353429 
676 1 -0.132839 0.111867 1.22948 0 -0.5 -4.83072 0.015 0 0 -0.346714 0.0353429 
690 1 -0.0634806 0.282565 1.21838 0 -0.5 -4.85319 0.015 0 0 -0.346714 0.0353429 
634 1 -0.102181 0.304021 1.22078 0 -0.5 -4.84838 0.025 0 0 -1.60516 0.163625 
652 1 -0.0683105 0.116338 1.24632 0 -0.5 -4.79639 0.015 0 0 -0.346714 0.0353429 
629 1 -0.113195 0.163381 1.25973 0 -0.5 -4.76892 0.025 0 0 -1.60516 0.163625 
669 1 -0.0318411 0.293893 1.25027 0 -0.5 -4.78835 0.015 0 0 -0.346714 0.0353429 
608 1 -0.0938106 0.0527933 1.29197 0 -0.5 -4.70212 0.025 0 0 -1.60516 0.163625 
606 1 -0.122355 0.23759 1.29634 0.00210743 -0.508228 -4.68925 0.025 0 0 -1.60516 0.163625 
708 1 -0.0786991 0.277401 1.29408 0 -0.5 -4.6977 0.015 0 0 -0.346714 0.0353429 
701 1 -0.0870486 0.335674 1.29788 0 -0.5 -4.68975 0.015 0 0 -0.346714 0.0353429 
682 1 -0.0469368 0.0487812 1.30112 0 -0.5 -4.68299 0.015 0 0 -0.346714 0.0353429 
657 1 -0.0480729 0.0869275 1.31126 0 -0.5 -4.6617 0.015 0 0 -0.346714 0.0353429 
735 1 -0.0832421 0.130669 1.32858 0 -0.5 -4.62511 0.015 0 0 -0.346714 0.0353429 
660 1 -0.0183143 0.290377 1.31512 0 -0.5 -4.65356 0.015 0 0 -0.346714 0.0353429 
618 1 -0.13283 0.0971641 1.37537 0 -0.5 -4.52475 0.025 0 0 -1.60516 0.163625 
709 1 -0.101732 0.179531 1.36618 0 -0.5 -4.54466 0.015 0 0 -0.346714 0.0353429 
750 1 -0.0862874 0.244179 1.37759 0 -0.5 -4.51994 0.015 0 0 -0.346714 0.0353429 
707 1 -0.0900659 0.0799886 1.39259 0 -0.5 -4.48728 0.015 0 0 -0.346714 0.0353429 
640 1 -0.0489559 0.0995172 1.41929 0 -0.5 -4.42851 0.025 0 0 -1.60516 0.163625 
680 1 -0.0791761 0.134881 1.40753 0 -0.5 -4.45451 0.015 0 0 -0.346714 0.0353429 
649 1 -0.129761 0.213177 1.39385 0 -0.5 -4.48453 0.025 0 0 -1.60516 0.163625 
616 1 -0.140255 0.305264 1.42009 0 -0.5 -4.42675 0.025 0 0 -1.60516 0.163625 
725 1 -0.0732043 0.307614 1.44126 0 -0.5 -4.37956 0.015 0 0 -0.346714 0.0353429 
712 1 -0.0372677 0.35055 1.43149 0 -0.5 -4.40144 0.015 0 0 -0.346714 0.0353429 
677 1 -0.113879 0.0703032 1.45158 0 -0.5 -4.35641 0.015 0 0 -0.346714 0.0353429 
744 1 -0.107021 0.256725 1.46893 0 -0.5 -4.31717 0.015 0 0 -0.346714 0.0353429 
736 1 -0.0864872 0.163793 1.49998 0 -0.5 -4.24605 0.015 0 0 -0.346714 0.0353429 
685 1 -0.0969629 0.303703 1.49047 0 -0.5 -4.26792 0.015 0 0 -0.346714 0.0353429 
610 1 -0.108705 0.103549 1.54111 0 -0.5 -4.14991 0.025 0 0 -1.60516 0.163625 
692 1 -0.0389882 0.12507 1.52685 0 -0.5 -4.18346 0.015 0 0 -0.346714 0.0353429 
625 1 -0.0648908 0.23714 1.51851 0.250947 -0.205125 -4.31933 0.025 0 0 -1.60516 0.163625 
722 1 -0.124711 0.302428 1.52694 0 -0.5 -4.18326 0.015 0 0 -0.346714 0.0353429 
674 1 -0.11657 0.359544 1.52132 0 -0.5 -4.19641 0.015 0 0 -0.346714 0.0353429 
699 1 -0.0856858 0.36142 1.51876 0 -0.5 -4.20239 0.015 0 0 -0.346714 0.0353429 
620 1 -0.0294016 0.335755 1.53763 0 -0.5 -4.15815 0.025 0 0 -1.60516 0.163625 
748 1 -0.0192599 0.0928309 1.56047 0 -0.5 -4.1039 0.015 0 0 -0.346714 0.0353429 
683 1 -0.0829948 0.304592 1.54621 0 -0.5 -4.13784 0.015 0 0 -0.346714 0.0353429 
732 1 -0.0691875 0.341647 1.55264 0 -0.5 -4.12254 0.015 0 0 -0.346714 0.0353429 
678 1 -0.0973357 0.233233 1.58611 0 -0.5 -4.0421 0.015 0 0 -0.346714 0.0353429 
636 1 -0.149776 0.278476 1.57488 0 -0.5 -4.06927 0.025 0 0 -1.60516 0.163625 
696 1 -0.058387 0.307843 1.60016 0 -0.5 -4.00786 0.015 0 0 -0.346714 0.0353429 
705 1 -0.0946775 0.0812794 1.60608 0 -0.5 -3.99334 0.015 0 0 -0.346714 0.0353429 
641 1 -0.14731 0.144863 1.61783 -0.0165282 -0.51578 -3.95755 0.025 0 0 -1.60516 0.163625 
694 1 -0.138308 0.245231 1.62976 0 -0.5 -3.93478 0.015 0 0 -0.346714 0.0353429 
733 1 -0.0833844 0.278272 1.63079 0 -0.5 -3.93223 0.015 0 0 -0.346714 0.0353429 
698 1 -0.111785 0.321616 1.61791 0 -0.5 -3.96421 0.015 0 0 -0.346714 0.0353429 
648 1 -0.130879 0.362847 1.60916 0 -0.5 -3.98579 0.025 0 0 -1.60516 0.163625 
644 1 -0.140738 0.091303 1.65713 0 -0.5 -3.86591 0.025 0 0 -1.60516 0.163625 
637 1 -0.0618774 0.112817 1.64854 0 -0.5 -3.88769 0.025 0 0 -1.60516 0.163625 
730 1 -0.0250727 0.0932457 1.63996 0 -0.5 -3.90927 0.015 0 0 -0.346714 0.0353429 
729 1 -0.0894542 0.143908 1.65113 0 -0.5 -3.88112 0.015 0 0 -0.346714 0.0353429 
745 1 -0.0712279 0.247884 1.6592 0.249023 -0.340208 -3.94406 0.015 0 0 -0.346714 0.0353429 
639 1 -0.0549389 0.459972 1.64353 0.113569 0.037071 -3.95572 0.025 0 0 -1.60516 0.163625 
724 1 -0.0903421 0.181009 1.66781 0 -0.5 -3.83874 0.015 0 0 -0.346714 0.0353429 
628 1 -0.0930007 0.289308 1.68843 -0.035052 -0.643145 -3.76959 0.025 0 0 -1.60516 0.163625 
684 1 -0.0877228 0.126489 1.70989 0 -0.5 -3.72965 0.015 0 0 -0.346714 0.0353429 
627 1 -0.145292 0.203425 1.72044 -0.00145318 -0.500708 -3.70138 0.025 0 0 -1.60516 0.163625 
679 1 -0.13837 0.0961581 1.73685 0 -0.5 -3.65804 0.015 0 0 -0.346714 0.0353429 