ITEM: TIMESTEP
28800
ITEM: NUMBER OF ATOMS
300
ITEM: BOX BOUNDS mm mm mm
-1 1
-1 1
-0.05 2.85
ITEM: ATOMS id type x y z vx vy vz radius fx fy fz mass 
45 1 -0.0943793 0.0522376 1.29952 0 -0.5 -4.68632 0.025 0 0 -1.60516 0.163625 
68 1 -0.0997213 0.101271 1.27512 0 -0.5 -4.73714 0.015 0 0 -0.346714 0.0353429 
122 1 -0.0706763 0.11011 1.29982 0.00811842 -0.517403 -4.6847 0.015 0 0 -0.346714 0.0353429 
137 1 -0.0878556 0.147066 1.28669 -0.00924354 -0.479856 -4.71428 0.015 0 0 -0.346714 0.0353429 
33 1 -0.129286 0.292605 1.29431 0 -0.5 -4.69721 0.025 0 0 -1.60516 0.163625 
119 1 -0.0370509 0.0411886 1.32465 0 -0.5 -4.63345 0.015 0 0 -0.346714 0.0353429 
43 1 -0.116198 0.203785 1.31754 0 -0.5 -4.64845 0.025 0 0 -1.60516 0.163625 
78 1 -0.0422369 0.299955 1.33125 0 -0.5 -4.61942 0.015 0 0 -0.346714 0.0353429 
111 1 -0.0487783 0.3361 1.31805 0 -0.5 -4.64738 0.015 0 0 -0.346714 0.0353429 
75 1 -0.0493142 0.0916721 1.33936 0 -0.5 -4.60215 0.015 0 0 -0.346714 0.0353429 
89 1 -0.129145 0.120308 1.3448 0 -0.5 -4.59058 0.015 0 0 -0.346714 0.0353429 
116 1 -0.00487011 0.184409 1.35807 0.36535 -0.287166 -4.67536 0.015 0 0 -0.346714 0.0353429 
59 1 -0.0865612 0.248868 1.35679 0 -0.5 -4.56487 0.015 0 0 -0.346714 0.0353429 
92 1 -0.131017 0.343327 1.36945 0 -0.5 -4.5376 0.015 0 0 -0.346714 0.0353429 
26 1 -0.0794027 0.156759 1.41034 0.14857 -0.341553 -4.50665 0.025 0 0 -1.60516 0.163625 
98 1 -0.147127 0.192442 1.41597 0 -0.5 -4.43587 0.015 0 0 -0.346714 0.0353429 
151 1 -0.0686397 0.274527 1.41549 0 -0.5 -4.43695 0.015 0 0 -0.346714 0.0353429 
8 1 -0.104188 0.059463 1.42993 0 -0.5 -4.40487 0.025 0 0 -1.60516 0.163625 
3 1 -0.141317 0.257388 1.43632 0 -0.5 -4.39065 0.025 0 0 -1.60516 0.163625 
72 1 -0.105673 0.294796 1.4473 0 -0.5 -4.36602 0.015 0 0 -0.346714 0.0353429 
117 1 -0.0596227 0.0710208 1.47939 0 -0.5 -4.29333 0.015 0 0 -0.346714 0.0353429 
100 1 -0.0681017 0.127921 1.4631 0 -0.5 -4.33041 0.015 0 0 -0.346714 0.0353429 
140 1 -0.125739 0.169556 1.45915 0 -0.5 -4.33934 0.015 0 0 -0.346714 0.0353429 
40 1 -0.104474 0.346198 1.46005 0 -0.5 -4.33728 0.025 0 0 -1.60516 0.163625 
118 1 -0.0372647 0.329681 1.46725 0 -0.5 -4.321 0.015 0 0 -0.346714 0.0353429 
51 1 -0.154723 0.0882381 1.49824 -0.0265052 -0.519812 -4.24143 0.025 0 0 -1.60516 0.163625 
148 1 -0.144478 0.19142 1.50962 -0.171679 -0.397353 -4.34267 0.015 0 0 -0.346714 0.0353429 
60 1 -0.0770515 0.0799276 1.54064 0 -0.5 -4.15099 0.015 0 0 -0.346714 0.0353429 
11 1 -0.10274 0.233464 1.53948 0.022917 -0.457889 -4.18015 0.025 0 0 -1.60516 0.163625 
50 1 -0.130982 0.304355 1.54177 0 -0.5 -4.14834 0.025 0 0 -1.60516 0.163625 
90 1 -0.146535 0.347667 1.52523 0 -0.5 -4.18729 0.015 0 0 -0.346714 0.0353429 
105 1 -0.147044 0.212756 1.57075 -0.321192 -0.368687 -4.06386 0.015 0 0 -0.346714 0.0353429 
74 1 -0.0790012 0.291893 1.56702 0 -0.5 -4.08821 0.015 0 0 -0.346714 0.0353429 
76 1 -0.0202065 0.32007 1.57847 0 -0.5 -4.06064 0.015 0 0 -0.346714 0.0353429 
44 1 -0.125916 0.0715965 1.58607 0 -0.5 -4.0422 0.025 0 0 -1.60516 0.163625 
36 1 -0.103411 0.118312 1.60144 0 -0.5 -4.00472 0.025 0 0 -1.60516 0.163625 
29 1 -0.0788351 0.334182 1.59715 0 -0.5 -4.01522 0.025 0 0 -1.60516 0.163625 
54 1 -0.144339 0.15749 1.61423 -0.0956439 -0.529683 -3.95342 0.015 0 0 -0.346714 0.0353429 
114 1 -0.071969 0.148408 1.62672 -0.00040144 -0.499666 -3.94251 0.015 0 0 -0.346714 0.0353429 
146 1 -0.109965 0.0849163 1.66381 0 -0.5 -3.84894 0.015 0 0 -0.346714 0.0353429 
73 1 -0.0639552 0.0977667 1.64807 0 -0.5 -3.88887 0.015 0 0 -0.346714 0.0353429 
2 1 -0.110349 0.245071 1.6521 0 -0.5 -3.87866 0.025 0 0 -1.60516 0.163625 
12 1 -0.0363281 0.354336 1.66274 0 -0.5 -3.85169 0.025 0 0 -1.60516 0.163625 
113 1 -0.118506 0.369198 1.64358 0 -0.5 -3.90015 0.015 0 0 -0.346714 0.0353429 
99 1 -0.146283 0.149517 1.69169 0 -0.5 -3.77723 0.015 0 0 -0.346714 0.0353429 
57 1 -0.120673 0.201061 1.68277 0 -0.5 -3.80028 0.015 0 0 -0.346714 0.0353429 
88 1 -0.0666498 0.311919 1.67513 0 -0.5 -3.82 0.015 0 0 -0.346714 0.0353429 
66 1 -0.0281121 0.136823 1.72155 0 -0.5 -3.69885 0.015 0 0 -0.346714 0.0353429 
19 1 -0.0715757 0.159252 1.71877 0 -0.5 -3.7062 0.025 0 0 -1.60516 0.163625 
83 1 -0.108229 0.179146 1.71614 0 -0.5 -3.71317 0.015 0 0 -0.346714 0.0353429 
10 1 -0.086303 0.286253 1.71748 0.0800593 -0.36273 -3.82411 0.025 0 0 -1.60516 0.163625 
34 1 -0.138562 0.318511 1.71216 0 -0.5 -3.72367 0.025 0 0 -1.60516 0.163625 
81 1 -0.051385 0.319999 1.7242 0 -0.5 -3.69178 0.015 0 0 -0.346714 0.0353429 
71 1 -0.145263 0.362198 1.72735 0 -0.5 -3.68345 0.015 0 0 -0.346714 0.0353429 
67 1 -0.0183057 0.0923887 1.73969 0 -0.5 -3.65039 0.015 0 0 -0.346714 0.0353429 
24 1 -0.138394 0.119452 1.74854 0 -0.5 -3.62655 0.025 0 0 -1.60516 0.163625 
133 1 -0.127566 0.235944 1.75477 0 -0.5 -3.60967 0.015 0 0 -0.346714 0.0353429 
95 1 -0.10482 0.323312 1.75725 0 -0.5 -3.6029 0.015 0 0 -0.346714 0.0353429 
39 1 -0.0696793 0.37301 1.75733 0 -0.5 -3.60271 0.025 0 0 -1.60516 0.163625 
70 1 -0.107191 0.145924 1.78332 0 -0.5 -3.53119 0.015 0 0 -0.346714 0.0353429 
103 1 -0.135939 0.163722 1.77472 0 -0.5 -3.55503 0.015 0 0 -0.346714 0.0353429 
97 1 -0.0338223 0.149144 1.79462 0 -0.5 -3.4997 0.015 0 0 -0.346714 0.0353429 
115 1 -0.076478 0.184431 1.7949 0 -0.5 -3.49892 0.015 0 0 -0.346714 0.0353429 
85 1 -0.13789 0.306015 1.79658 0 -0.5 -3.49421 0.015 0 0 -0.346714 0.0353429 
143 1 -0.11631 0.381682 1.78086 0 -0.5 -3.53806 0.015 0 0 -0.346714 0.0353429 
28 1 -0.0685748 0.12207 1.8009 0 -0.5 -3.48205 0.025 0 0 -1.60516 0.163625 
96 1 -0.131998 0.149081 1.82596 0 -0.5 -3.41073 0.015 0 0 -0.346714 0.0353429 
126 1 -0.115517 0.240731 1.81095 -0.0288748 -0.539424 -3.41755 0.015 0 0 -0.346714 0.0353429 
134 1 -0.137197 0.346367 1.80773 0 -0.5 -3.46272 0.015 0 0 -0.346714 0.0353429 
77 1 -0.0297287 0.374749 1.8126 0 -0.5 -3.44889 0.015 0 0 -0.346714 0.0353429 
120 1 -0.148569 0.395261 1.814 0 -0.5 -3.44496 0.015 0 0 -0.346714 0.0353429 
38 1 -0.121616 0.190188 1.83983 0 -0.5 -3.3706 0.025 0 0 -1.60516 0.163625 
31 1 -0.140814 0.126877 1.8896 0 -0.5 -3.22247 0.025 0 0 -1.60516 0.163625 
150 1 -0.100106 0.161207 1.88015 0 -0.5 -3.25112 0.015 0 0 -0.346714 0.0353429 
130 1 -0.0642546 0.184441 1.86539 0 -0.5 -3.29536 0.015 0 0 -0.346714 0.0353429 
23 1 -0.134189 0.326519 1.8648 0 -0.5 -3.29713 0.025 0 0 -1.60516 0.163625 
18 1 -0.106015 0.391686 1.88096 0 -0.5 -3.24867 0.025 0 0 -1.60516 0.163625 
4 1 -0.0330873 0.404857 1.88045 0 -0.5 -3.25024 0.025 0 0 -1.60516 0.163625 
110 1 -0.0868918 0.116417 1.90651 0 -0.5 -3.17058 0.015 0 0 -0.346714 0.0353429 
93 1 -0.0244706 0.128158 1.915 0 -0.5 -3.14419 0.015 0 0 -0.346714 0.0353429 
17 1 -0.134634 0.242027 1.91927 0 -0.5 -3.13085 0.025 0 0 -1.60516 0.163625 
136 1 -0.0832352 0.335008 1.91721 0 -0.5 -3.13732 0.015 0 0 -0.346714 0.0353429 
108 1 -0.089121 0.148824 1.94754 0 -0.5 -3.04099 0.015 0 0 -0.346714 0.0353429 
30 1 -0.0481876 0.362857 1.92212 0 -0.5 -3.12192 0.025 0 0 -1.60516 0.163625 
106 1 -0.112296 0.421097 1.92822 -0.0998962 -0.230395 -3.33121 0.015 0 0 -0.346714 0.0353429 
109 1 -0.0676248 0.41008 1.92145 0 -0.5 -3.12398 0.015 0 0 -0.346714 0.0353429 
69 1 -0.020474 0.169083 1.96097 0 -0.5 -2.99733 0.015 0 0 -0.346714 0.0353429 
22 1 -0.102489 0.274306 1.98019 0 -0.5 -2.93376 0.025 0 0 -1.60516 0.163625 
35 1 -0.146938 0.342792 1.96494 0 -0.5 -2.98429 0.025 0 0 -1.60516 0.163625 
14 1 -0.0571303 0.140975 1.98959 0 -0.5 -2.90218 0.025 0 0 -1.60516 0.163625 
102 1 -0.11709 0.148899 1.98327 0 -0.5 -2.92346 0.015 0 0 -0.346714 0.0353429 
139 1 -0.104092 0.206572 1.98318 0 -0.5 -2.92376 0.015 0 0 -0.346714 0.0353429 
141 1 -0.136875 0.222264 1.99816 0 -0.5 -2.87304 0.015 0 0 -0.346714 0.0353429 
144 1 -0.0691235 0.209474 1.98263 0 -0.5 -2.92562 0.015 0 0 -0.346714 0.0353429 
55 1 -0.0959978 0.380395 1.99233 -7.52477e-06 -0.49998 -2.89289 0.015 0 0 -0.346714 0.0353429 
1 1 -0.143958 0.44921 1.98404 -0.021394 -0.0706631 -3.19617 0.025 0 0 -1.60516 0.163625 
21 1 -0.0470047 0.4255 2.00656 0 -0.5 -2.8442 0.025 0 0 -1.60516 0.163625 
107 1 -0.141609 0.137948 2.03001 0 -0.5 -2.76219 0.015 0 0 -0.346714 0.0353429 
112 1 -0.073338 0.221279 2.04464 0 -0.5 -2.7097 0.015 0 0 -0.346714 0.0353429 
149 1 -0.09716 0.250314 2.0361 0.199959 -0.45766 -3.13093 0.015 0 0 -0.346714 0.0353429 
94 1 -0.140652 0.272443 2.03322 -0.356499 -0.190573 -2.88043 0.015 0 0 -0.346714 0.0353429 
84 1 -0.116406 0.301786 2.04272 0 -0.5 -2.71667 0.015 0 0 -0.346714 0.0353429 
87 1 -0.113676 0.343588 2.01503 0 -0.5 -2.81487 0.015 0 0 -0.346714 0.0353429 
147 1 -0.100309 0.413431 2.0389 0 -0.5 -2.7304 0.015 0 0 -0.346714 0.0353429 
142 1 -0.0724928 0.162748 2.05663 0 -0.5 -2.66595 0.015 0 0 -0.346714 0.0353429 
6 1 -0.10357 0.188195 2.071 0.101461 -0.428163 -2.62513 0.025 0 0 -1.60516 0.163625 
80 1 -0.102893 0.348893 2.06648 0 -0.5 -2.62946 0.015 0 0 -0.346714 0.0353429 
47 1 -0.140465 0.38545 2.05668 0 -0.5 -2.66576 0.025 0 0 -1.60516 0.163625 
145 1 -0.0934491 0.378113 2.05781 0 -0.5 -2.66164 0.015 0 0 -0.346714 0.0353429 
32 1 -0.153133 0.1542 2.08255 -0.0613285 -0.540948 -2.56219 0.025 0 0 -1.60516 0.163625 
138 1 -0.0317395 0.165316 2.0924 0 -0.5 -2.53087 0.015 0 0 -0.346714 0.0353429 
135 1 -0.140472 0.230893 2.0822 0 -0.5 -2.57011 0.015 0 0 -0.346714 0.0353429 
15 1 -0.0904966 0.28089 2.07656 0.0430154 -0.390763 -2.51793 0.025 0 0 -1.60516 0.163625 
128 1 -0.145291 0.315677 2.09329 0 -0.5 -2.52743 0.015 0 0 -0.346714 0.0353429 
121 1 -0.0679495 0.420078 2.10395 0 -0.5 -2.48574 0.015 0 0 -0.346714 0.0353429 
62 1 -0.0849655 0.438406 2.08206 0 -0.5 -2.5707 0.015 0 0 -0.346714 0.0353429 
61 1 -0.0231802 0.158935 2.13661 0 -0.5 -2.35331 0.015 0 0 -0.346714 0.0353429 
129 1 -0.0553418 0.189199 2.12322 0 -0.5 -2.40844 0.015 0 0 -0.346714 0.0353429 
79 1 -0.0179342 0.192984 2.13665 0 -0.5 -2.35311 0.015 0 0 -0.346714 0.0353429 
13 1 -0.146779 0.271821 2.1308 0 -0.5 -2.37744 0.025 0 0 -1.60516 0.163625 
101 1 -0.102489 0.281824 2.12869 0 -0.5 -2.38607 0.015 0 0 -0.346714 0.0353429 
91 1 -0.124131 0.378132 2.13689 0 -0.5 -2.35213 0.015 0 0 -0.346714 0.0353429 
37 1 -0.0716655 0.384665 2.1284 0 -0.5 -2.38725 0.025 0 0 -1.60516 0.163625 
46 1 -0.032303 0.446569 2.1311 0 -0.5 -2.37616 0.025 0 0 -1.60516 0.163625 
52 1 -0.100497 0.17449 2.14082 0 -0.5 -2.33565 0.015 0 0 -0.346714 0.0353429 
5 1 -0.137704 0.202412 2.14627 0 -0.5 -2.31269 0.025 0 0 -1.60516 0.163625 
7 1 -0.0712578 0.241449 2.14795 0 -0.5 -2.30553 0.025 0 0 -1.60516 0.163625 
20 1 -0.124339 0.329888 2.14458 0 -0.5 -2.31986 0.025 0 0 -1.60516 0.163625 
86 1 -0.142939 0.371059 2.1655 0 -0.5 -2.2296 0.015 0 0 -0.346714 0.0353429 
9 1 -0.0320364 0.405159 2.1672 0 -0.5 -2.22215 0.025 0 0 -1.60516 0.163625 
65 1 -0.147981 0.179097 2.18071 0 -0.5 -2.16162 0.015 0 0 -0.346714 0.0353429 
58 1 -0.0969698 0.275891 2.17403 0 -0.5 -2.19174 0.015 0 0 -0.346714 0.0353429 
104 1 -0.138444 0.343217 2.19855 0 -0.5 -2.07912 0.015 0 0 -0.346714 0.0353429 
124 1 -0.136447 0.401377 2.17397 0 -0.5 -2.19203 0.015 0 0 -0.346714 0.0353429 
131 1 -0.025873 0.44404 2.19403 0 -0.5 -2.10031 0.015 0 0 -0.346714 0.0353429 
41 1 -0.107908 0.456758 2.17947 0 -0.5 -2.16731 0.025 0 0 -1.60516 0.163625 
49 1 -0.0613084 0.18937 2.21636 -0 0 -2 0.025 0 0 0 0.163625 
132 1 -0.0234712 0.212168 2.20731 0 -0.5 -2.03743 0.015 0 0 -0.346714 0.0353429 
48 1 -0.144727 0.269852 2.20693 0 -0.5 -2.03919 0.025 0 0 -1.60516 0.163625 
53 1 -0.106432 0.31434 2.20792 0 -0.5 -2.03448 0.015 0 0 -0.346714 0.0353429 
16 1 -0.129915 0.412384 2.2178 -0 0 -2 0.025 0 0 0 0.163625 
82 1 -0.0851821 0.402207 2.22069 -0 0 -2 0.015 0 0 0 0.0353429 
27 1 -0.0637137 0.439115 2.21809 -0 0 -2 0.025 0 0 0 0.163625 
63 1 -0.147823 0.467223 2.22496 -0 0 -2 0.015 0 0 0 0.0353429 
25 1 -0.104447 0.217985 2.23821 -0 0 -2 0.025 0 0 0 0.163625 
127 1 -0.0304133 0.231126 2.23299 -0 0 -2 0.015 0 0 0 0.0353429 
42 1 -0.132916 0.309326 2.24488 -0 0 -2 0.025 0 0 0 0.163625 
123 1 -0.11925 0.365597 2.24658 -0 0 -2 0.015 0 0 0 0.0353429 
125 1 -0.0960051 0.419402 2.25392 -0 0 -2 0.015 0 0 0 0.0353429 
64 1 -0.145219 0.427667 2.25304 -0 0 -2 0.015 0 0 0 0.0353429 
56 1 -0.11556 0.462639 2.23292 -0 0 -2 0.015 0 0 0 0.0353429 
289 1 0.0975058 0.255318 1.17671 0.0203384 -0.134604 -5.11543 0.015 0 0 -0.346714 0.0353429 
284 1 0.0722208 0.0550054 1.27006 -0.0310215 -0.613333 -4.81015 0.015 0 0 -0.346714 0.0353429 
203 1 0.0667127 0.0392328 1.29733 0 -0.5 -4.69093 0.015 0 0 -0.346714 0.0353429 
206 1 0.0953321 0.0826698 1.29921 0.057048 -0.582454 -4.73461 0.015 0 0 -0.346714 0.0353429 
199 1 0.0900829 0.179731 1.30017 -0.00278668 -0.321029 -4.78709 0.025 0 0 -1.60516 0.163625 
213 1 0.0350777 0.27857 1.29745 0 -0.5 -4.69064 0.015 0 0 -0.346714 0.0353429 
272 1 0.0168276 0.313548 1.29315 0 -0.5 -4.69966 0.015 0 0 -0.346714 0.0353429 
259 1 0.149131 0.0798265 1.32056 0 -0.5 -4.64208 0.015 0 0 -0.346714 0.0353429 
263 1 0.025742 0.100494 1.33139 0 -0.5 -4.61912 0.015 0 0 -0.346714 0.0353429 
237 1 0.123741 0.102714 1.31541 0.0724848 -0.475593 -4.63961 0.015 0 0 -0.346714 0.0353429 
214 1 0.144386 0.225733 1.30603 0 -0.5 -4.67269 0.015 0 0 -0.346714 0.0353429 
171 1 0.0955264 0.241107 1.31996 0 -0.5 -4.64335 0.025 0 0 -1.60516 0.163625 
226 1 0.110692 0.287304 1.31546 0 -0.5 -4.65287 0.015 0 0 -0.346714 0.0353429 
241 1 0.0849537 0.309018 1.31019 0 -0.5 -4.66395 0.015 0 0 -0.346714 0.0353429 
220 1 0.022605 0.059606 1.35639 -0.0669262 -0.554313 -4.55691 0.015 0 0 -0.346714 0.0353429 
177 1 0.150824 0.20437 1.3566 0.112606 -0.398162 -4.57192 0.025 0 0 -1.60516 0.163625 
290 1 0.146937 0.255561 1.38963 0.0439512 -0.299137 -4.44556 0.015 0 0 -0.346714 0.0353429 
166 1 0.0609489 0.343253 1.39354 0 -0.5 -4.48522 0.025 0 0 -1.60516 0.163625 
184 1 0.11251 0.341841 1.3881 0 -0.5 -4.49709 0.025 0 0 -1.60516 0.163625 
249 1 0.0491797 0.279421 1.40854 0 -0.5 -4.45225 0.015 0 0 -0.346714 0.0353429 
270 1 0.0946744 0.271669 1.42023 0 -0.5 -4.42645 0.015 0 0 -0.346714 0.0353429 
216 1 0.0866399 0.0833721 1.44249 0.0481324 -0.610657 -4.34929 0.015 0 0 -0.346714 0.0353429 
222 1 0.123753 0.0816614 1.43776 0 -0.5 -4.38741 0.015 0 0 -0.346714 0.0353429 
294 1 0.128315 0.304152 1.43407 0 -0.5 -4.39565 0.015 0 0 -0.346714 0.0353429 
180 1 0.040317 0.0976213 1.47092 -0.021889 -0.504465 -4.3047 0.025 0 0 -1.60516 0.163625 
253 1 0.123075 0.189069 1.47384 0 -0.5 -4.30599 0.015 0 0 -0.346714 0.0353429 
170 1 0.169578 0.258852 1.45864 0.161731 -0.381986 -4.35899 0.025 0 0 -1.60516 0.163625 
231 1 0.0350342 0.30162 1.46889 0 -0.5 -4.31727 0.015 0 0 -0.346714 0.0353429 
169 1 0.0892107 0.310668 1.4883 0 -0.5 -4.27293 0.025 0 0 -1.60516 0.163625 
209 1 0.0969746 0.0772476 1.51321 0 -0.5 -4.21534 0.015 0 0 -0.346714 0.0353429 
282 1 0.0397779 0.170025 1.49873 -0.2609 -0.673185 -4.22125 0.015 0 0 -0.346714 0.0353429 
296 1 0.146983 0.193001 1.54414 0 -0.5 -4.14275 0.015 0 0 -0.346714 0.0353429 
278 1 0.113612 0.211965 1.54256 0 -0.5 -4.14648 0.015 0 0 -0.346714 0.0353429 
257 1 0.139837 0.324641 1.54298 0 -0.5 -4.1455 0.015 0 0 -0.346714 0.0353429 
168 1 0.0261487 0.114104 1.57733 0 -0.5 -4.06339 0.025 0 0 -1.60516 0.163625 
269 1 0.141487 0.109504 1.57489 0 -0.5 -4.06927 0.015 0 0 -0.346714 0.0353429 
162 1 0.0478022 0.314457 1.57053 0 -0.5 -4.07977 0.025 0 0 -1.60516 0.163625 
235 1 0.134937 0.0803847 1.58762 0 -0.5 -4.03847 0.015 0 0 -0.346714 0.0353429 
185 1 0.0936576 0.158666 1.59347 0 -0.5 -4.02424 0.025 0 0 -1.60516 0.163625 
217 1 0.133752 0.159691 1.58633 0 -0.5 -4.04161 0.015 0 0 -0.346714 0.0353429 
182 1 0.114565 0.269779 1.58309 0 -0.5 -4.04946 0.025 0 0 -1.60516 0.163625 
286 1 0.147755 0.35887 1.58544 0 -0.5 -4.04377 0.015 0 0 -0.346714 0.0353429 
176 1 0.0399362 0.366472 1.5864 0 -0.5 -4.04141 0.025 0 0 -1.60516 0.163625 
153 1 0.0895866 0.0747598 1.61457 0 -0.5 -3.97245 0.025 0 0 -1.60516 0.163625 
211 1 0.0694768 0.132972 1.63121 0 -0.5 -3.93115 0.015 0 0 -0.346714 0.0353429 
251 1 0.126174 0.227559 1.6255 0 -0.5 -3.94537 0.015 0 0 -0.346714 0.0353429 
204 1 0.134881 0.121248 1.66434 0 -0.5 -3.84757 0.015 0 0 -0.346714 0.0353429 
161 1 0.135356 0.17885 1.66347 0 -0.5 -3.84982 0.025 0 0 -1.60516 0.163625 
228 1 0.0279693 0.328593 1.67023 0 -0.5 -3.83256 0.015 0 0 -0.346714 0.0353429 
291 1 0.140432 0.303523 1.64378 0 -0.5 -3.89966 0.015 0 0 -0.346714 0.0353429 
300 1 0.149285 0.35624 1.65579 0 -0.5 -3.86934 0.015 0 0 -0.346714 0.0353429 
159 1 0.087245 0.362208 1.64491 0 -0.5 -3.89681 0.025 0 0 -1.60516 0.163625 
175 1 0.0941494 0.114059 1.69478 0 -0.5 -3.76918 0.025 0 0 -1.60516 0.163625 
230 1 0.118982 0.219372 1.67833 0 -0.5 -3.81176 0.015 0 0 -0.346714 0.0353429 
299 1 0.0153001 0.137541 1.72988 0 -0.5 -3.67668 0.015 0 0 -0.346714 0.0353429 
293 1 0.0548164 0.153145 1.72318 0 -0.5 -3.69453 0.015 0 0 -0.346714 0.0353429 
192 1 0.134392 0.277049 1.71507 0 -0.5 -3.71601 0.025 0 0 -1.60516 0.163625 
285 1 0.0870748 0.314259 1.71647 0 -0.5 -3.71229 0.015 0 0 -0.346714 0.0353429 
256 1 0.0868225 0.346057 1.71186 0 -0.5 -3.72445 0.015 0 0 -0.346714 0.0353429 
275 1 0.0211058 0.360962 1.7284 0 -0.5 -3.6806 0.015 0 0 -0.346714 0.0353429 
246 1 0.0494565 0.38101 1.71711 0 -0.5 -3.71062 0.015 0 0 -0.346714 0.0353429 
240 1 0.0956629 0.37788 1.71911 0 -0.5 -3.70532 0.015 0 0 -0.346714 0.0353429 
250 1 0.138716 0.360193 1.70962 0 -0.5 -3.73034 0.015 0 0 -0.346714 0.0353429 
202 1 0.126943 0.112119 1.75447 0 -0.5 -3.61046 0.015 0 0 -0.346714 0.0353429 
245 1 0.0868358 0.137715 1.76361 0 -0.5 -3.58554 0.015 0 0 -0.346714 0.0353429 
200 1 0.112803 0.170149 1.74372 0 -0.5 -3.63959 0.025 0 0 -1.60516 0.163625 
255 1 0.0340792 0.328865 1.74897 0 -0.5 -3.62537 0.015 0 0 -0.346714 0.0353429 
252 1 0.131256 0.337424 1.74898 0 -0.5 -3.62537 0.015 0 0 -0.346714 0.0353429 
189 1 0.0509787 0.111512 1.7839 0 -0.5 -3.52962 0.025 0 0 -1.60516 0.163625 
247 1 0.0532922 0.165565 1.77837 0 -0.5 -3.54493 0.015 0 0 -0.346714 0.0353429 
154 1 0.116388 0.257122 1.79419 0 -0.5 -3.50088 0.025 0 0 -1.60516 0.163625 
287 1 0.130384 0.10235 1.80833 0 -0.5 -3.46105 0.015 0 0 -0.346714 0.0353429 
288 1 0.0326968 0.147446 1.81702 0 -0.5 -3.43633 0.015 0 0 -0.346714 0.0353429 
295 1 0.103955 0.316828 1.81965 0 -0.5 -3.42878 0.015 0 0 -0.346714 0.0353429 
156 1 0.0411221 0.365187 1.82176 0 -0.5 -3.42279 0.025 0 0 -1.60516 0.163625 
190 1 0.11779 0.370732 1.80225 0 -0.5 -3.47822 0.025 0 0 -1.60516 0.163625 
210 1 0.0872868 0.109386 1.84338 0 -0.5 -3.36021 0.015 0 0 -0.346714 0.0353429 
181 1 0.070397 0.148344 1.84983 0 -0.5 -3.34137 0.025 0 0 -1.60516 0.163625 
165 1 0.148355 0.200191 1.84033 0 -0.5 -3.36913 0.025 0 0 -1.60516 0.163625 
233 1 0.0406697 0.127292 1.88491 0 -0.5 -3.2367 0.015 0 0 -0.346714 0.0353429 
260 1 0.0198171 0.15712 1.87385 0 -0.5 -3.27005 0.015 0 0 -0.346714 0.0353429 
152 1 0.089118 0.215144 1.86803 0 -0.5 -3.28751 0.025 0 0 -1.60516 0.163625 
279 1 0.11959 0.275322 1.87563 0 -0.5 -3.26475 0.015 0 0 -0.346714 0.0353429 
262 1 0.0888361 0.309008 1.88079 0 -0.5 -3.24916 0.015 0 0 -0.346714 0.0353429 
234 1 0.0945525 0.358871 1.87653 0 -0.5 -3.26201 0.015 0 0 -0.346714 0.0353429 
208 1 0.0680799 0.395251 1.88194 0 -0.5 -3.24572 0.015 0 0 -0.346714 0.0353429 
207 1 0.128901 0.326384 1.89584 0 -0.5 -3.20344 0.015 0 0 -0.346714 0.0353429 
194 1 0.131621 0.386036 1.89344 0 -0.5 -3.2108 0.025 0 0 -1.60516 0.163625 
223 1 0.0343911 0.408571 1.90841 0 -0.5 -3.16469 0.015 0 0 -0.346714 0.0353429 
212 1 0.0737637 0.140983 1.93117 0 -0.5 -3.09337 0.015 0 0 -0.346714 0.0353429 
236 1 0.111584 0.154462 1.93119 0 -0.5 -3.09328 0.015 0 0 -0.346714 0.0353429 
242 1 0.131055 0.232908 1.94693 0 -0.5 -3.04295 0.015 0 0 -0.346714 0.0353429 
191 1 0.0609008 0.355599 1.93416 0 -0.5 -3.08386 0.025 0 0 -1.60516 0.163625 
178 1 0.0370442 0.125146 1.95768 0 -0.5 -3.00812 0.025 0 0 -1.60516 0.163625 
224 1 0.132465 0.183362 1.95778 0 -0.5 -3.00773 0.015 0 0 -0.346714 0.0353429 
221 1 0.0987988 0.220271 1.9648 0 -0.5 -2.98478 0.015 0 0 -0.346714 0.0353429 
179 1 0.136485 0.286915 1.98122 0 -0.5 -2.93033 0.025 0 0 -1.60516 0.163625 
258 1 0.135516 0.136979 1.98727 0 -0.5 -2.91002 0.015 0 0 -0.346714 0.0353429 
187 1 0.0681893 0.19089 1.9989 0 -0.5 -2.87049 0.025 0 0 -1.60516 0.163625 
248 1 0.0851139 0.325859 1.99175 0 -0.5 -2.89482 0.015 0 0 -0.346714 0.0353429 
157 1 0.115469 0.375408 2.00172 -0.00155417 -0.497745 -2.86252 0.025 -0.425168 0.612873 -2.0523 0.163625 
264 1 0.0357265 0.419028 1.99335 0 -0.5 -2.88942 0.015 0 0 -0.346714 0.0353429 
277 1 0.0674794 0.412305 2.00309 0 -0.5 -2.85617 0.015 0 0 -0.346714 0.0353429 
205 1 0.0941484 0.136831 2.02479 0 -0.5 -2.78063 0.015 0 0 -0.346714 0.0353429 
276 1 0.0937292 0.174975 2.0435 0 -0.5 -2.71382 0.015 0 0 -0.346714 0.0353429 
227 1 0.137271 0.148175 2.03235 0 -0.5 -2.75385 0.015 0 0 -0.346714 0.0353429 
232 1 0.13999 0.210569 2.01848 0 -0.5 -2.8028 0.015 0 0 -0.346714 0.0353429 
172 1 0.14199 0.341332 2.02667 0.20706 -0.274871 -2.98304 0.025 0.425168 -0.612873 -1.15801 0.163625 
174 1 0.030822 0.382563 2.01915 0 -0.5 -2.80045 0.025 0 0 -1.60516 0.163625 
201 1 0.0267726 0.15144 2.05155 0 -0.5 -2.68459 0.025 0 0 -1.60516 0.163625 
265 1 0.115746 0.174087 2.0745 0 -0.5 -2.59934 0.015 0 0 -0.346714 0.0353429 
225 1 0.0772421 0.19811 2.0721 0 -0.5 -2.60837 0.015 0 0 -0.346714 0.0353429 
158 1 0.0866624 0.241056 2.05061 0 -0.5 -2.68802 0.025 0 0 -1.60516 0.163625 
254 1 0.1374 0.288741 2.05812 -1.31397e-05 -0.499936 -2.66048 0.015 0 0 -0.346714 0.0353429 
283 1 0.102888 0.410132 2.0675 0 -0.5 -2.62563 0.015 0 0 -0.346714 0.0353429 
173 1 0.0548933 0.432549 2.07194 0 -0.5 -2.60896 0.025 0 0 -1.60516 0.163625 
229 1 0.102013 0.150371 2.09522 0 -0.5 -2.51998 0.015 0 0 -0.346714 0.0353429 
271 1 0.0984374 0.280683 2.08089 -0.00761594 -0.521042 -2.57533 0.015 0 0 -0.346714 0.0353429 
274 1 0.109127 0.311518 2.08007 0.00849878 -0.475917 -2.57809 0.015 0 0 -0.346714 0.0353429 
183 1 0.0737852 0.372476 2.08562 0 -0.5 -2.55706 0.025 0 0 -1.60516 0.163625 
281 1 0.0312292 0.407757 2.10228 0 -0.5 -2.49231 0.015 0 0 -0.346714 0.0353429 
196 1 0.0520917 0.18326 2.10742 0 -0.5 -2.47201 0.025 0 0 -1.60516 0.163625 
163 1 0.107222 0.214031 2.11437 0 -0.5 -2.44425 0.025 0 0 -1.60516 0.163625 
155 1 0.141768 0.28004 2.11525 0 -0.5 -2.44071 0.025 0 0 -1.60516 0.163625 
268 1 0.140569 0.368425 2.12601 0 -0.5 -2.39706 0.015 0 0 -0.346714 0.0353429 
188 1 0.140755 0.418611 2.10944 0 -0.5 -2.46396 0.025 0 0 -1.60516 0.163625 
280 1 0.0259283 0.452434 2.11992 -0.323138 -0.0374805 -2.63278 0.015 0 0 -0.346714 0.0353429 
267 1 0.101401 0.443938 2.12522 0 -0.5 -2.4003 0.015 0 0 -0.346714 0.0353429 
218 1 0.0164873 0.203398 2.15671 0 -0.5 -2.26796 0.015 0 0 -0.346714 0.0353429 
298 1 0.114914 0.335821 2.14765 0 -0.5 -2.30681 0.015 0 0 -0.346714 0.0353429 
197 1 0.0582293 0.40983 2.14735 0.00113978 -0.501265 -2.30738 0.025 0 0 -1.60516 0.163625 
273 1 0.0779061 0.446083 2.14926 0 -0.5 -2.29994 0.015 0 0 -0.346714 0.0353429 
164 1 0.0527853 0.196126 2.19627 0 -0.5 -2.08991 0.025 0 0 -1.60516 0.163625 
160 1 0.118533 0.213664 2.18963 0 -0.5 -2.12081 0.025 0 0 -1.60516 0.163625 
215 1 0.0767991 0.260664 2.19948 0 -0.5 -2.0747 0.015 0 0 -0.346714 0.0353429 
297 1 0.141884 0.27065 2.19716 0 -0.5 -2.08569 0.015 0 0 -0.346714 0.0353429 
238 1 0.105443 0.354651 2.17894 0 -0.5 -2.16966 0.015 0 0 -0.346714 0.0353429 
195 1 0.147227 0.353269 2.18552 0 -0.5 -2.13974 0.025 0 0 -1.60516 0.163625 
292 1 0.0287531 0.418634 2.19939 0 -0.5 -2.0751 0.015 0 0 -0.346714 0.0353429 
167 1 0.118751 0.455346 2.1836 0 -0.5 -2.14847 0.025 0 0 -1.60516 0.163625 
261 1 0.0852607 0.230191 2.2149 0 -0.5 -2.00044 0.015 0 0 -0.346714 0.0353429 
243 1 0.113126 0.365244 2.2175 -0 0 -2 0.015 0 0 0 0.0353429 
193 1 0.102412 0.412673 2.21252 0 -0.5 -2.01212 0.025 0 0 -1.60516 0.163625 
198 1 0.0617553 0.465866 2.21261 0 -0.5 -2.01162 0.025 0 0 -1.60516 0.163625 
219 1 0.0278687 0.201322 2.24255 -0 0 -2 0.015 0 0 0 0.0353429 
239 1 0.126558 0.237343 2.23931 -0 0 -2 0.015 0 0 0 0.0353429 
186 1 0.10183 0.291927 2.23208 -0 0 -2 0.025 0 0 0 0.163625 
266 1 0.0917737 0.36017 2.24911 -0 0 -2 0.015 0 0 0 0.0353429 
244 1 0.0497502 0.427977 2.23571 -0 0 -2 0.015 0 0 0 0.0353429 
