ITEM: TIMESTEP
20800
ITEM: NUMBER OF ATOMS
300
ITEM: BOX BOUNDS mm mm mm
-1 1
-1 1
-0.05 2.85
ITEM: ATOMS id type x y z vx vy vz radius fx fy fz mass 
45 1 -0.0943793 0.0922376 1.64303 0 -0.5 -3.90152 0.025 0 0 -1.60516 0.163625 
68 1 -0.0997213 0.141271 1.6227 0 -0.5 -3.95234 0.015 0 0 -0.346714 0.0353429 
122 1 -0.0713257 0.151503 1.64321 0.00811842 -0.517403 -3.8999 0.015 0 0 -0.346714 0.0353429 
137 1 -0.0871161 0.185454 1.63245 -0.00924354 -0.479856 -3.92948 0.015 0 0 -0.346714 0.0353429 
33 1 -0.129286 0.332605 1.6387 0 -0.5 -3.91241 0.025 0 0 -1.60516 0.163625 
119 1 -0.0370509 0.0811886 1.66393 0 -0.5 -3.84865 0.015 0 0 -0.346714 0.0353429 
43 1 -0.116198 0.243785 1.65802 0 -0.5 -3.86365 0.025 0 0 -1.60516 0.163625 
78 1 -0.0422369 0.339955 1.66942 0 -0.5 -3.83462 0.015 0 0 -0.346714 0.0353429 
111 1 -0.0487783 0.3761 1.65845 0 -0.5 -3.86258 0.015 0 0 -0.346714 0.0353429 
75 1 -0.0493142 0.131672 1.67614 0 -0.5 -3.81735 0.015 0 0 -0.346714 0.0353429 
89 1 -0.129145 0.160308 1.68065 0 -0.5 -3.80578 0.015 0 0 -0.346714 0.0353429 
116 1 -0.0340981 0.207382 1.70071 0.36535 -0.287166 -3.89056 0.015 0 0 -0.346714 0.0353429 
59 1 -0.0865612 0.288868 1.69059 0 -0.5 -3.78007 0.015 0 0 -0.346714 0.0353429 
92 1 -0.131017 0.383327 1.70107 0 -0.5 -3.7528 0.015 0 0 -0.346714 0.0353429 
8 1 -0.104188 0.099463 1.75093 0 -0.5 -3.62007 0.025 0 0 -1.60516 0.163625 
26 1 -0.0912883 0.184083 1.73948 0.14857 -0.341553 -3.72185 0.025 0 0 -1.60516 0.163625 
98 1 -0.147127 0.232442 1.73945 0 -0.5 -3.65107 0.015 0 0 -0.346714 0.0353429 
3 1 -0.141317 0.297388 1.75618 0 -0.5 -3.60585 0.025 0 0 -1.60516 0.163625 
151 1 -0.0686397 0.314527 1.73906 0 -0.5 -3.65215 0.015 0 0 -0.346714 0.0353429 
72 1 -0.105673 0.334796 1.76519 0 -0.5 -3.58122 0.015 0 0 -0.346714 0.0353429 
117 1 -0.0596227 0.111021 1.79146 0 -0.5 -3.50853 0.015 0 0 -0.346714 0.0353429 
100 1 -0.0681017 0.167921 1.77814 0 -0.5 -3.54561 0.015 0 0 -0.346714 0.0353429 
140 1 -0.125739 0.209556 1.7749 0 -0.5 -3.55454 0.015 0 0 -0.346714 0.0353429 
40 1 -0.104474 0.386198 1.77564 0 -0.5 -3.55248 0.025 0 0 -1.60516 0.163625 
118 1 -0.0372647 0.369681 1.78153 0 -0.5 -3.5362 0.015 0 0 -0.346714 0.0353429 
51 1 -0.152602 0.129823 1.80616 -0.0265052 -0.519812 -3.45663 0.025 0 0 -1.60516 0.163625 
148 1 -0.130744 0.223208 1.82564 -0.171679 -0.397353 -3.55787 0.015 0 0 -0.346714 0.0353429 
60 1 -0.0770515 0.119928 1.84133 0 -0.5 -3.36619 0.015 0 0 -0.346714 0.0353429 
11 1 -0.104534 0.270165 1.84244 0.00225053 -0.495645 -3.36625 0.025 0.587591 1.12438 -2.45906 0.163625 
50 1 -0.130982 0.344355 1.84225 0 -0.5 -3.36354 0.025 0 0 -1.60516 0.163625 
90 1 -0.146535 0.387667 1.82882 0 -0.5 -3.40249 0.015 0 0 -0.346714 0.0353429 
44 1 -0.125916 0.111597 1.87806 0 -0.5 -3.2574 0.025 0 0 -1.60516 0.163625 
105 1 -0.121528 0.241929 1.86471 -0.225513 -0.193891 -3.41381 0.015 -0.587591 -1.12438 0.507193 0.0353429 
74 1 -0.0790012 0.331893 1.86269 0 -0.5 -3.30341 0.015 0 0 -0.346714 0.0353429 
29 1 -0.0788351 0.374182 1.88698 0 -0.5 -3.23042 0.025 0 0 -1.60516 0.163625 
76 1 -0.0202065 0.36007 1.87193 0 -0.5 -3.27584 0.015 0 0 -0.346714 0.0353429 
36 1 -0.103411 0.158312 1.89043 0 -0.5 -3.21992 0.025 0 0 -1.60516 0.163625 
54 1 -0.136688 0.199865 1.89911 -0.0956439 -0.529683 -3.16862 0.015 0 0 -0.346714 0.0353429 
114 1 -0.0719369 0.188381 1.91072 -0.00040144 -0.499666 -3.15771 0.015 0 0 -0.346714 0.0353429 
146 1 -0.109965 0.124916 1.94033 0 -0.5 -3.06414 0.015 0 0 -0.346714 0.0353429 
73 1 -0.0639552 0.137767 1.92779 0 -0.5 -3.10407 0.015 0 0 -0.346714 0.0353429 
2 1 -0.110349 0.285071 1.931 0 -0.5 -3.09386 0.025 0 0 -1.60516 0.163625 
88 1 -0.0666498 0.351919 1.94934 0 -0.5 -3.0352 0.015 0 0 -0.346714 0.0353429 
113 1 -0.118506 0.409198 1.9242 0 -0.5 -3.11535 0.015 0 0 -0.346714 0.0353429 
12 1 -0.0363281 0.394336 1.93949 0 -0.5 -3.06689 0.025 0 0 -1.60516 0.163625 
99 1 -0.146283 0.189517 1.96248 0 -0.5 -2.99243 0.015 0 0 -0.346714 0.0353429 
83 1 -0.108229 0.219146 1.9818 0 -0.5 -2.92837 0.015 0 0 -0.346714 0.0353429 
57 1 -0.120673 0.241061 1.9554 0 -0.5 -3.01548 0.015 0 0 -0.346714 0.0353429 
34 1 -0.138562 0.358511 1.97867 0 -0.5 -2.93887 0.025 0 0 -1.60516 0.163625 
67 1 -0.0183057 0.132389 2.00033 0 -0.5 -2.86559 0.015 0 0 -0.346714 0.0353429 
24 1 -0.138394 0.159452 2.00728 0 -0.5 -2.84175 0.025 0 0 -1.60516 0.163625 
66 1 -0.0281121 0.176823 1.98607 0 -0.5 -2.91405 0.015 0 0 -0.346714 0.0353429 
19 1 -0.0715757 0.199252 1.98387 0 -0.5 -2.9214 0.025 0 0 -1.60516 0.163625 
133 1 -0.127566 0.275944 2.01215 0 -0.5 -2.82487 0.015 0 0 -0.346714 0.0353429 
10 1 -0.0927077 0.315272 1.99202 0.0800593 -0.36273 -3.03931 0.025 0 0 -1.60516 0.163625 
81 1 -0.051385 0.359999 1.98815 0 -0.5 -2.90698 0.015 0 0 -0.346714 0.0353429 
71 1 -0.145263 0.402198 1.99064 0 -0.5 -2.89865 0.015 0 0 -0.346714 0.0353429 
103 1 -0.135939 0.203722 2.02773 0 -0.5 -2.77023 0.015 0 0 -0.346714 0.0353429 
70 1 -0.107191 0.185924 2.03443 0 -0.5 -2.74639 0.015 0 0 -0.346714 0.0353429 
97 1 -0.0338223 0.189144 2.0432 0 -0.5 -2.7149 0.015 0 0 -0.346714 0.0353429 
115 1 -0.076478 0.224431 2.04342 0 -0.5 -2.71412 0.015 0 0 -0.346714 0.0353429 
85 1 -0.13789 0.346015 2.04472 0 -0.5 -2.70941 0.015 0 0 -0.346714 0.0353429 
95 1 -0.10482 0.363312 2.01409 0 -0.5 -2.8181 0.015 0 0 -0.346714 0.0353429 
39 1 -0.0696793 0.41301 2.01416 0 -0.5 -2.81791 0.025 0 0 -1.60516 0.163625 
143 1 -0.11631 0.421682 2.03251 0 -0.5 -2.75326 0.015 0 0 -0.346714 0.0353429 
28 1 -0.0685748 0.16207 2.04807 0 -0.5 -2.69725 0.025 0 0 -1.60516 0.163625 
96 1 -0.131998 0.189081 2.06742 0 -0.5 -2.62593 0.015 0 0 -0.346714 0.0353429 
126 1 -0.113207 0.283885 2.05296 -0.0288748 -0.539424 -2.63275 0.015 0 0 -0.346714 0.0353429 
134 1 -0.137197 0.386367 2.05336 0 -0.5 -2.67792 0.015 0 0 -0.346714 0.0353429 
77 1 -0.0297287 0.414749 2.05712 0 -0.5 -2.66409 0.015 0 0 -0.346714 0.0353429 
120 1 -0.148569 0.435261 2.0582 0 -0.5 -2.66016 0.015 0 0 -0.346714 0.0353429 
38 1 -0.121616 0.230188 2.07808 0 -0.5 -2.5858 0.025 0 0 -1.60516 0.163625 
130 1 -0.0642546 0.224441 2.09762 0 -0.5 -2.51056 0.015 0 0 -0.346714 0.0353429 
23 1 -0.134189 0.366519 2.09718 0 -0.5 -2.51233 0.025 0 0 -1.60516 0.163625 
31 1 -0.140814 0.166877 2.11601 0 -0.5 -2.43767 0.025 0 0 -1.60516 0.163625 
110 1 -0.0868918 0.156417 2.12877 0 -0.5 -2.38578 0.015 0 0 -0.346714 0.0353429 
93 1 -0.0244706 0.168158 2.13515 0 -0.5 -2.35939 0.015 0 0 -0.346714 0.0353429 
150 1 -0.100106 0.201207 2.10885 0 -0.5 -2.46632 0.015 0 0 -0.346714 0.0353429 
136 1 -0.0832352 0.375008 2.1368 0 -0.5 -2.35252 0.015 0 0 -0.346714 0.0353429 
18 1 -0.106015 0.431686 2.10946 0 -0.5 -2.46387 0.025 0 0 -1.60516 0.163625 
4 1 -0.0330873 0.444857 2.10908 0 -0.5 -2.46544 0.025 0 0 -1.60516 0.163625 
108 1 -0.089121 0.188824 2.15943 0 -0.5 -2.25619 0.015 0 0 -0.346714 0.0353429 
69 1 -0.020474 0.209083 2.16937 0 -0.5 -2.21253 0.015 0 0 -0.346714 0.0353429 
17 1 -0.134634 0.282027 2.13835 0 -0.5 -2.34605 0.025 0 0 -1.60516 0.163625 
30 1 -0.0481876 0.402857 2.14048 0 -0.5 -2.33712 0.025 0 0 -1.60516 0.163625 
106 1 -0.104305 0.439528 2.16333 -0.0998962 -0.230395 -2.54641 0.015 0 0 -0.346714 0.0353429 
109 1 -0.0676248 0.45008 2.13998 0 -0.5 -2.33918 0.015 0 0 -0.346714 0.0353429 
102 1 -0.11709 0.188899 2.18576 0 -0.5 -2.13866 0.015 0 0 -0.346714 0.0353429 
14 1 -0.0571303 0.180975 2.19037 0 -0.5 -2.11738 0.025 0 0 -1.60516 0.163625 
141 1 -0.136875 0.262264 2.19661 0 -0.5 -2.08824 0.015 0 0 -0.346714 0.0353429 
139 1 -0.104092 0.246572 2.18568 0 -0.5 -2.13896 0.015 0 0 -0.346714 0.0353429 
144 1 -0.0691235 0.249474 2.18529 0 -0.5 -2.14082 0.015 0 0 -0.346714 0.0353429 
22 1 -0.102489 0.314306 2.1835 0 -0.5 -2.14896 0.025 0 0 -1.60516 0.163625 
35 1 -0.146938 0.382792 2.1723 0 -0.5 -2.19949 0.025 0 0 -1.60516 0.163625 
55 1 -0.0959972 0.420393 2.19237 -7.52477e-06 -0.49998 -2.10809 0.015 0 0 -0.346714 0.0353429 
107 1 -0.141609 0.176798 2.21962 -0 0 -2 0.015 0 0 0 0.0353429 
112 1 -0.073338 0.257454 2.23031 -0 0 -2 0.015 0 0 0 0.0353429 
94 1 -0.127866 0.29863 2.22584 -0 0 -2 0.015 0 0 0 0.0353429 
84 1 -0.116406 0.338316 2.2289 -0 0 -2 0.015 0 0 0 0.0353429 
87 1 -0.113676 0.383588 2.20883 0 -0.5 -2.03007 0.015 0 0 -0.346714 0.0353429 
147 1 -0.100309 0.450661 2.22609 -0 0 -2 0.015 0 0 0 0.0353429 
1 1 -0.142366 0.457234 2.20628 0 -0.5 -2.04233 0.025 0 0 -1.60516 0.163625 
21 1 -0.0470047 0.4655 2.2027 0 -0.5 -2.0594 0.025 0 0 -1.60516 0.163625 
32 1 -0.149633 0.185622 2.25866 -0 0 -2 0.025 0 0 0 0.163625 
142 1 -0.0724928 0.196693 2.23923 -0 0 -2 0.015 0 0 0 0.0353429 
6 1 -0.109435 0.215083 2.25084 -0 0 -2 0.025 0 0 0 0.163625 
135 1 -0.140472 0.259953 2.25876 -0 0 -2 0.015 0 0 0 0.0353429 
149 1 -0.107316 0.253342 2.2389 -0 0 -2 0.015 0 0 0 0.0353429 
15 1 -0.0916636 0.308509 2.25268 -0 0 -2 0.025 0 0 0 0.163625 
80 1 -0.102893 0.380978 2.24668 -0 0 -2 0.015 0 0 0 0.0353429 
47 1 -0.140465 0.419385 2.23927 -0 0 -2 0.025 0 0 0 0.163625 
145 1 -0.0934491 0.411838 2.24012 -0 0 -2 0.015 0 0 0 0.0353429 
62 1 -0.0849655 0.467496 2.25866 -0 0 -2 0.015 0 0 0 0.0353429 
138 1 -0.0317395 0.192376 2.26676 -0 0 -2 0.015 0 0 0 0.0353429 
128 1 -0.145291 0.342562 2.26747 -0 0 -2 0.015 0 0 0 0.0353429 
121 1 -0.0679495 0.444838 2.27597 -0 0 -2 0.015 0 0 0 0.0353429 
61 1 -0.0231802 0.176945 2.30297 -0 0 -2 0.015 0 0 0 0.0353429 
52 1 -0.100497 0.1916 2.30656 -0 0 -2 0.015 0 0 0 0.0353429 
129 1 -0.0553418 0.210019 2.29172 -0 0 -2 0.015 0 0 0 0.0353429 
79 1 -0.0179342 0.210984 2.303 -0 0 -2 0.015 0 0 0 0.0353429 
5 1 -0.137704 0.218352 2.31125 -0 0 -2 0.025 0 0 0 0.163625 
7 1 -0.0712578 0.257024 2.31271 -0 0 -2 0.025 0 0 0 0.163625 
13 1 -0.146779 0.291061 2.29806 -0 0 -2 0.025 0 0 0 0.163625 
101 1 -0.102489 0.301504 2.29629 -0 0 -2 0.015 0 0 0 0.0353429 
20 1 -0.124339 0.346193 2.3098 -0 0 -2 0.025 0 0 0 0.163625 
91 1 -0.124131 0.396082 2.30321 -0 0 -2 0.015 0 0 0 0.0353429 
37 1 -0.0716655 0.404405 2.29605 -0 0 -2 0.025 0 0 0 0.163625 
46 1 -0.032303 0.465744 2.29831 -0 0 -2 0.025 0 0 0 0.163625 
65 1 -0.147981 0.187337 2.34204 -0 0 -2 0.015 0 0 0 0.0353429 
58 1 -0.0969698 0.285666 2.33591 -0 0 -2 0.015 0 0 0 0.0353429 
86 1 -0.142939 0.382764 2.32819 -0 0 -2 0.015 0 0 0 0.0353429 
124 1 -0.136447 0.411167 2.33585 -0 0 -2 0.015 0 0 0 0.0353429 
9 1 -0.0320364 0.416484 2.32971 -0 0 -2 0.025 0 0 0 0.163625 
41 1 -0.107908 0.465288 2.34089 -0 0 -2 0.025 0 0 0 0.163625 
49 1 -0.0613084 0.18937 2.37636 -0 0 -2 0.025 0 0 0 0.163625 
132 1 -0.0234712 0.214078 2.36738 -0 0 -2 0.015 0 0 0 0.0353429 
48 1 -0.144727 0.271852 2.36701 -0 0 -2 0.025 0 0 0 0.163625 
53 1 -0.106432 0.3161 2.36798 -0 0 -2 0.015 0 0 0 0.0353429 
104 1 -0.138444 0.347252 2.35886 -0 0 -2 0.015 0 0 0 0.0353429 
16 1 -0.129915 0.412384 2.3778 -0 0 -2 0.025 0 0 0 0.163625 
82 1 -0.0851821 0.402207 2.38069 -0 0 -2 0.015 0 0 0 0.0353429 
27 1 -0.0637137 0.439115 2.37809 -0 0 -2 0.025 0 0 0 0.163625 
131 1 -0.025873 0.449155 2.35454 -0 0 -2 0.015 0 0 0 0.0353429 
25 1 -0.104447 0.217985 2.39821 -0 0 -2 0.025 0 0 0 0.163625 
127 1 -0.0304133 0.231126 2.39299 -0 0 -2 0.015 0 0 0 0.0353429 
42 1 -0.132916 0.309326 2.40488 -0 0 -2 0.025 0 0 0 0.163625 
123 1 -0.11925 0.365597 2.40658 -0 0 -2 0.015 0 0 0 0.0353429 
63 1 -0.147823 0.467223 2.38496 -0 0 -2 0.015 0 0 0 0.0353429 
56 1 -0.11556 0.462639 2.39292 -0 0 -2 0.015 0 0 0 0.0353429 
125 1 -0.0960051 0.419402 2.41392 -0 0 -2 0.015 0 0 0 0.0353429 
64 1 -0.145219 0.427667 2.41304 -0 0 -2 0.015 0 0 0 0.0353429 
289 1 0.0958787 0.266087 1.55455 0.0203384 -0.134604 -4.33063 0.015 0 0 -0.346714 0.0353429 
203 1 0.0667127 0.0792328 1.64121 0 -0.5 -3.90613 0.015 0 0 -0.346714 0.0353429 
284 1 0.0747025 0.104072 1.62348 -0.0310215 -0.613333 -4.02535 0.015 0 0 -0.346714 0.0353429 
213 1 0.0350777 0.31857 1.64131 0 -0.5 -3.90584 0.015 0 0 -0.346714 0.0353429 
272 1 0.0168276 0.353548 1.63773 0 -0.5 -3.91486 0.015 0 0 -0.346714 0.0353429 
263 1 0.025742 0.140494 1.66953 0 -0.5 -3.83432 0.015 0 0 -0.346714 0.0353429 
206 1 0.0907682 0.129266 1.64659 0.057048 -0.582454 -3.94981 0.015 0 0 -0.346714 0.0353429 
237 1 0.117943 0.140762 1.65519 0.0724848 -0.475593 -3.85481 0.015 0 0 -0.346714 0.0353429 
259 1 0.149131 0.119826 1.66054 0 -0.5 -3.85728 0.015 0 0 -0.346714 0.0353429 
199 1 0.0903059 0.205414 1.65175 -0.00278668 -0.321029 -4.00229 0.025 0 0 -1.60516 0.163625 
214 1 0.144386 0.265733 1.64845 0 -0.5 -3.88789 0.015 0 0 -0.346714 0.0353429 
171 1 0.0955264 0.281107 1.66004 0 -0.5 -3.85855 0.025 0 0 -1.60516 0.163625 
226 1 0.110692 0.327304 1.6563 0 -0.5 -3.86807 0.015 0 0 -0.346714 0.0353429 
241 1 0.0849537 0.349018 1.65191 0 -0.5 -3.87915 0.015 0 0 -0.346714 0.0353429 
220 1 0.0279591 0.103951 1.68955 -0.0669262 -0.554313 -3.77211 0.015 0 0 -0.346714 0.0353429 
177 1 0.141816 0.236223 1.69096 0.112606 -0.398162 -3.78712 0.025 0 0 -1.60516 0.163625 
290 1 0.143421 0.279492 1.71388 0.0439512 -0.299137 -3.66076 0.015 0 0 -0.346714 0.0353429 
249 1 0.0491797 0.319421 1.73333 0 -0.5 -3.66745 0.015 0 0 -0.346714 0.0353429 
166 1 0.0609489 0.383253 1.72097 0 -0.5 -3.70042 0.025 0 0 -1.60516 0.163625 
184 1 0.11251 0.381841 1.71647 0 -0.5 -3.71229 0.025 0 0 -1.60516 0.163625 
216 1 0.0827893 0.132225 1.75904 0.0481324 -0.610657 -3.56449 0.015 0 0 -0.346714 0.0353429 
222 1 0.123753 0.121661 1.75736 0 -0.5 -3.60261 0.015 0 0 -0.346714 0.0353429 
270 1 0.0946744 0.311669 1.74295 0 -0.5 -3.64165 0.015 0 0 -0.346714 0.0353429 
294 1 0.128315 0.344152 1.75433 0 -0.5 -3.61085 0.015 0 0 -0.346714 0.0353429 
180 1 0.0420681 0.137978 1.7839 -0.021889 -0.504465 -3.5199 0.025 0 0 -1.60516 0.163625 
253 1 0.123075 0.229069 1.78693 0 -0.5 -3.52119 0.015 0 0 -0.346714 0.0353429 
170 1 0.15664 0.289411 1.77597 0.161731 -0.381986 -3.57419 0.025 0 0 -1.60516 0.163625 
231 1 0.0350342 0.34162 1.78288 0 -0.5 -3.53247 0.015 0 0 -0.346714 0.0353429 
209 1 0.0969746 0.117248 1.81905 0 -0.5 -3.43054 0.015 0 0 -0.346714 0.0353429 
282 1 0.0606499 0.22388 1.80504 -0.2609 -0.673185 -3.43645 0.015 0 0 -0.346714 0.0353429 
169 1 0.0892107 0.350668 1.79875 0 -0.5 -3.48813 0.025 0 0 -1.60516 0.163625 
296 1 0.146983 0.233001 1.84416 0 -0.5 -3.35795 0.015 0 0 -0.346714 0.0353429 
278 1 0.113612 0.251965 1.84289 0 -0.5 -3.36168 0.015 0 0 -0.346714 0.0353429 
257 1 0.139837 0.364641 1.84323 0 -0.5 -3.3607 0.015 0 0 -0.346714 0.0353429 
235 1 0.134937 0.120385 1.8793 0 -0.5 -3.25367 0.015 0 0 -0.346714 0.0353429 
168 1 0.0261487 0.154104 1.87101 0 -0.5 -3.27859 0.025 0 0 -1.60516 0.163625 
269 1 0.141487 0.149504 1.86904 0 -0.5 -3.28447 0.015 0 0 -0.346714 0.0353429 
185 1 0.0936576 0.198666 1.88402 0 -0.5 -3.23944 0.025 0 0 -1.60516 0.163625 
217 1 0.133752 0.199691 1.87826 0 -0.5 -3.25681 0.015 0 0 -0.346714 0.0353429 
182 1 0.114565 0.309779 1.87566 0 -0.5 -3.26466 0.025 0 0 -1.60516 0.163625 
162 1 0.0478022 0.354457 1.86552 0 -0.5 -3.29497 0.025 0 0 -1.60516 0.163625 
176 1 0.0399362 0.406472 1.87832 0 -0.5 -3.25661 0.025 0 0 -1.60516 0.163625 
286 1 0.147755 0.39887 1.87755 0 -0.5 -3.25897 0.015 0 0 -0.346714 0.0353429 
153 1 0.0895866 0.11476 1.90097 0 -0.5 -3.18765 0.025 0 0 -1.60516 0.163625 
211 1 0.0694768 0.172972 1.91431 0 -0.5 -3.14635 0.015 0 0 -0.346714 0.0353429 
251 1 0.126174 0.267559 1.90974 0 -0.5 -3.16057 0.015 0 0 -0.346714 0.0353429 
204 1 0.134881 0.161248 1.94076 0 -0.5 -3.06277 0.015 0 0 -0.346714 0.0353429 
161 1 0.135356 0.21885 1.94006 0 -0.5 -3.06502 0.025 0 0 -1.60516 0.163625 
230 1 0.118982 0.259372 1.95188 0 -0.5 -3.02696 0.015 0 0 -0.346714 0.0353429 
291 1 0.140432 0.343523 1.92436 0 -0.5 -3.11486 0.015 0 0 -0.346714 0.0353429 
228 1 0.0279693 0.368593 1.94544 0 -0.5 -3.04776 0.015 0 0 -0.346714 0.0353429 
159 1 0.087245 0.402208 1.92527 0 -0.5 -3.11201 0.025 0 0 -1.60516 0.163625 
300 1 0.149285 0.39624 1.93395 0 -0.5 -3.08454 0.015 0 0 -0.346714 0.0353429 
175 1 0.0941494 0.154059 1.96492 0 -0.5 -2.98438 0.025 0 0 -1.60516 0.163625 
192 1 0.134392 0.317049 1.98095 0 -0.5 -2.93121 0.025 0 0 -1.60516 0.163625 
285 1 0.0870748 0.354259 1.98206 0 -0.5 -2.92749 0.015 0 0 -0.346714 0.0353429 
256 1 0.0868225 0.386057 1.97842 0 -0.5 -2.93965 0.015 0 0 -0.346714 0.0353429 
250 1 0.138716 0.400193 1.97666 0 -0.5 -2.94554 0.015 0 0 -0.346714 0.0353429 
246 1 0.0494565 0.42101 1.98256 0 -0.5 -2.92582 0.015 0 0 -0.346714 0.0353429 
299 1 0.0153001 0.177541 1.99262 0 -0.5 -2.89188 0.015 0 0 -0.346714 0.0353429 
202 1 0.126943 0.152119 2.01192 0 -0.5 -2.82566 0.015 0 0 -0.346714 0.0353429 
293 1 0.0548164 0.193145 1.98735 0 -0.5 -2.90973 0.015 0 0 -0.346714 0.0353429 
200 1 0.112803 0.210149 2.0035 0 -0.5 -2.85479 0.025 0 0 -1.60516 0.163625 
255 1 0.0340792 0.368865 2.00761 0 -0.5 -2.84057 0.015 0 0 -0.346714 0.0353429 
252 1 0.131256 0.377424 2.00761 0 -0.5 -2.84057 0.015 0 0 -0.346714 0.0353429 
275 1 0.0211058 0.400962 1.99146 0 -0.5 -2.8958 0.015 0 0 -0.346714 0.0353429 
240 1 0.0956629 0.41788 1.98414 0 -0.5 -2.92052 0.015 0 0 -0.346714 0.0353429 
189 1 0.0509787 0.151512 2.03488 0 -0.5 -2.74482 0.025 0 0 -1.60516 0.163625 
245 1 0.0868358 0.177715 2.01906 0 -0.5 -2.80074 0.015 0 0 -0.346714 0.0353429 
247 1 0.0532922 0.205565 2.03058 0 -0.5 -2.76013 0.015 0 0 -0.346714 0.0353429 
154 1 0.116388 0.297122 2.04287 0 -0.5 -2.71608 0.025 0 0 -1.60516 0.163625 
287 1 0.130384 0.14235 2.05382 0 -0.5 -2.67625 0.015 0 0 -0.346714 0.0353429 
288 1 0.0326968 0.187446 2.06054 0 -0.5 -2.65153 0.015 0 0 -0.346714 0.0353429 
295 1 0.103955 0.356828 2.06256 0 -0.5 -2.64398 0.015 0 0 -0.346714 0.0353429 
156 1 0.0411221 0.405187 2.06419 0 -0.5 -2.63799 0.025 0 0 -1.60516 0.163625 
190 1 0.11779 0.410732 2.04912 0 -0.5 -2.69342 0.025 0 0 -1.60516 0.163625 
210 1 0.0872868 0.149386 2.08081 0 -0.5 -2.57541 0.015 0 0 -0.346714 0.0353429 
260 1 0.0198171 0.19712 2.10407 0 -0.5 -2.48525 0.015 0 0 -0.346714 0.0353429 
181 1 0.070397 0.188344 2.08575 0 -0.5 -2.55657 0.025 0 0 -1.60516 0.163625 
152 1 0.089118 0.255144 2.09964 0 -0.5 -2.50271 0.025 0 0 -1.60516 0.163625 
165 1 0.148355 0.240191 2.07847 0 -0.5 -2.58433 0.025 0 0 -1.60516 0.163625 
279 1 0.11959 0.315322 2.10542 0 -0.5 -2.47995 0.015 0 0 -0.346714 0.0353429 
234 1 0.0945525 0.398871 2.1061 0 -0.5 -2.47721 0.015 0 0 -0.346714 0.0353429 
233 1 0.0406697 0.167292 2.11246 0 -0.5 -2.4519 0.015 0 0 -0.346714 0.0353429 
262 1 0.0888361 0.349008 2.10933 0 -0.5 -2.46436 0.015 0 0 -0.346714 0.0353429 
207 1 0.128901 0.366384 2.12072 0 -0.5 -2.41864 0.015 0 0 -0.346714 0.0353429 
223 1 0.0343911 0.448571 2.1302 0 -0.5 -2.37989 0.015 0 0 -0.346714 0.0353429 
208 1 0.0680799 0.435251 2.11021 0 -0.5 -2.46092 0.015 0 0 -0.346714 0.0353429 
194 1 0.131621 0.426036 2.11891 0 -0.5 -2.426 0.025 0 0 -1.60516 0.163625 
178 1 0.0370442 0.165146 2.16694 0 -0.5 -2.22332 0.025 0 0 -1.60516 0.163625 
212 1 0.0737637 0.180983 2.14724 0 -0.5 -2.30857 0.015 0 0 -0.346714 0.0353429 
236 1 0.111584 0.194462 2.14726 0 -0.5 -2.30848 0.015 0 0 -0.346714 0.0353429 
224 1 0.132465 0.223362 2.16701 0 -0.5 -2.22293 0.015 0 0 -0.346714 0.0353429 
242 1 0.131055 0.272908 2.15897 0 -0.5 -2.25815 0.015 0 0 -0.346714 0.0353429 
191 1 0.0609008 0.395599 2.14948 0 -0.5 -2.29906 0.025 0 0 -1.60516 0.163625 
258 1 0.135516 0.176979 2.18868 0 -0.5 -2.12522 0.015 0 0 -0.346714 0.0353429 
187 1 0.0681893 0.23089 2.19715 0 -0.5 -2.08569 0.025 0 0 -1.60516 0.163625 
221 1 0.0987988 0.260271 2.17219 0 -0.5 -2.19998 0.015 0 0 -0.346714 0.0353429 
179 1 0.136485 0.326915 2.18425 0 -0.5 -2.14553 0.025 0 0 -1.60516 0.163625 
248 1 0.0851139 0.365859 2.19194 0 -0.5 -2.11002 0.015 0 0 -0.346714 0.0353429 
157 1 0.115469 0.415407 2.1992 0 -0.5 -2.07608 0.025 0 0 -1.60516 0.163625 
264 1 0.0357265 0.459028 2.19312 0 -0.5 -2.10462 0.015 0 0 -0.346714 0.0353429 
277 1 0.0674794 0.452305 2.20019 0 -0.5 -2.07137 0.015 0 0 -0.346714 0.0353429 
205 1 0.0941484 0.176621 2.21585 -0 0 -2 0.015 0 0 0 0.0353429 
276 1 0.0937292 0.21136 2.22947 -0 0 -2 0.015 0 0 0 0.0353429 
227 1 0.137271 0.1866 2.22132 -0 0 -2 0.015 0 0 0 0.0353429 
232 1 0.13999 0.250569 2.21131 0 -0.5 -2.018 0.015 0 0 -0.346714 0.0353429 
172 1 0.128434 0.362446 2.23047 -0 0 -2 0.025 0 0 0 0.163625 
174 1 0.030822 0.422563 2.2118 0 -0.5 -2.01565 0.025 0 0 -1.60516 0.163625 
201 1 0.0267726 0.186335 2.23543 -0 0 -2 0.025 0 0 0 0.163625 
265 1 0.115746 0.204637 2.25281 -0 0 -2 0.015 0 0 0 0.0353429 
225 1 0.0772421 0.22912 2.25096 -0 0 -2 0.015 0 0 0 0.0353429 
158 1 0.0866624 0.276126 2.23474 -0 0 -2 0.025 0 0 0 0.163625 
271 1 0.0988759 0.311205 2.25776 -0 0 -2 0.015 0 0 0 0.0353429 
254 1 0.137401 0.322401 2.24036 -0 0 -2 0.015 0 0 0 0.0353429 
274 1 0.108637 0.339608 2.2571 -0 0 -2 0.015 0 0 0 0.0353429 
283 1 0.102888 0.442022 2.24745 -0 0 -2 0.015 0 0 0 0.0353429 
173 1 0.0548933 0.463589 2.25084 -0 0 -2 0.025 0 0 0 0.163625 
229 1 0.102013 0.176876 2.269 -0 0 -2 0.015 0 0 0 0.0353429 
196 1 0.0520917 0.20732 2.27878 -0 0 -2 0.025 0 0 0 0.163625 
163 1 0.107222 0.236676 2.28443 -0 0 -2 0.025 0 0 0 0.163625 
155 1 0.141768 0.302505 2.28515 -0 0 -2 0.025 0 0 0 0.163625 
183 1 0.0737852 0.400871 2.26143 -0 0 -2 0.025 0 0 0 0.163625 
281 1 0.0312292 0.432852 2.27463 -0 0 -2 0.015 0 0 0 0.0353429 
188 1 0.140755 0.442261 2.28041 -0 0 -2 0.025 0 0 0 0.163625 
218 1 0.0164873 0.217058 2.32037 -0 0 -2 0.015 0 0 0 0.0353429 
298 1 0.114914 0.351461 2.31245 -0 0 -2 0.015 0 0 0 0.0353429 
268 1 0.140569 0.388665 2.29404 -0 0 -2 0.015 0 0 0 0.0353429 
197 1 0.0581936 0.42558 2.31216 -0 0 -2 0.025 0 0 0 0.163625 
280 1 0.0367193 0.456786 2.29577 -0 0 -2 0.015 0 0 0 0.0353429 
273 1 0.0779061 0.461373 2.31384 -0 0 -2 0.015 0 0 0 0.0353429 
267 1 0.101401 0.464343 2.29338 -0 0 -2 0.015 0 0 0 0.0353429 
160 1 0.118533 0.219824 2.35038 -0 0 -2 0.025 0 0 0 0.163625 
238 1 0.105443 0.363301 2.34041 -0 0 -2 0.015 0 0 0 0.0353429 
195 1 0.147227 0.360394 2.34652 -0 0 -2 0.025 0 0 0 0.163625 
167 1 0.118751 0.462916 2.34472 -0 0 -2 0.025 0 0 0 0.163625 
164 1 0.0527853 0.200711 2.35668 -0 0 -2 0.025 0 0 0 0.163625 
261 1 0.0852607 0.230216 2.3749 -0 0 -2 0.015 0 0 0 0.0353429 
215 1 0.0767991 0.264474 2.35977 -0 0 -2 0.015 0 0 0 0.0353429 
297 1 0.141884 0.27502 2.35754 -0 0 -2 0.015 0 0 0 0.0353429 
243 1 0.113126 0.365244 2.3775 -0 0 -2 0.015 0 0 0 0.0353429 
292 1 0.0287531 0.422464 2.35968 -0 0 -2 0.015 0 0 0 0.0353429 
193 1 0.102412 0.413293 2.37252 -0 0 -2 0.025 0 0 0 0.163625 
198 1 0.0617553 0.466461 2.37262 -0 0 -2 0.025 0 0 0 0.163625 
219 1 0.0278687 0.201322 2.40255 -0 0 -2 0.015 0 0 0 0.0353429 
239 1 0.126558 0.237343 2.39931 -0 0 -2 0.015 0 0 0 0.0353429 
186 1 0.10183 0.291927 2.39208 -0 0 -2 0.025 0 0 0 0.163625 
266 1 0.0917737 0.36017 2.40911 -0 0 -2 0.015 0 0 0 0.0353429 
244 1 0.0497502 0.427977 2.39571 -0 0 -2 0.015 0 0 0 0.0353429 
