ITEM: TIMESTEP
85600
ITEM: NUMBER OF ATOMS
900
ITEM: BOX BOUNDS mm mm mm
-1 1
-1 1
-3.30958 2.85
ITEM: ATOMS id type x y z vx vy vz radius fx fy fz mass 
68 1 -0.0997213 -0.182729 -2.99805 0 -0.5 -10.3092 0.015 0 0 -0.346714 0.0353429 
137 1 -0.0931059 -0.125493 -2.97349 -0.00924354 -0.479856 -10.2864 0.015 0 0 -0.346714 0.0353429 
33 1 -0.129286 0.00860469 -2.95618 0 -0.5 -10.2693 0.025 0 0 -1.60516 0.163625 
45 1 -0.0943793 -0.231762 -2.94478 0 -0.5 -10.2584 0.025 0 0 -1.60516 0.163625 
122 1 -0.066065 -0.183775 -2.94356 0.00811842 -0.517403 -10.2568 0.015 0 0 -0.346714 0.0353429 
119 1 -0.0370509 -0.242811 -2.88962 0 -0.5 -10.2055 0.015 0 0 -0.346714 0.0353429 
43 1 -0.116198 -0.0802146 -2.90525 0 -0.5 -10.2205 0.025 0 0 -1.60516 0.163625 
111 1 -0.0487783 0.0521 -2.90413 0 -0.5 -10.2195 0.015 0 0 -0.346714 0.0353429 
78 1 -0.0422369 0.0159551 -2.87505 0 -0.5 -10.1915 0.015 0 0 -0.346714 0.0353429 
75 1 -0.0493142 -0.192328 -2.85713 0 -0.5 -10.1742 0.015 0 0 -0.346714 0.0353429 
89 1 -0.129145 -0.163692 -2.84512 0 -0.5 -10.1627 0.015 0 0 -0.346714 0.0353429 
220 1 -0.0154091 -0.255244 -2.8144 -0.0669262 -0.554313 -10.129 0.015 0 0 -0.346714 0.0353429 
59 1 -0.0865612 -0.0351322 -2.81853 0 -0.5 -10.137 0.015 0 0 -0.346714 0.0353429 
92 1 -0.131017 0.0593272 -2.79038 0 -0.5 -10.1097 0.015 0 0 -0.346714 0.0353429 
98 1 -0.147127 -0.0915582 -2.68608 0 -0.5 -10.008 0.015 0 0 -0.346714 0.0353429 
151 1 -0.0686397 -0.00947299 -2.68717 0 -0.5 -10.009 0.015 0 0 -0.346714 0.0353429 
8 1 -0.104188 -0.224537 -2.65451 0 -0.5 -9.97695 0.025 0 0 -1.60516 0.163625 
3 1 -0.141317 -0.0266121 -2.64003 0 -0.5 -9.96273 0.025 0 0 -1.60516 0.163625 
140 1 -0.125739 -0.114444 -2.58807 0 -0.5 -9.91142 0.015 0 0 -0.346714 0.0353429 
72 1 -0.105673 0.010796 -2.61507 0 -0.5 -9.9381 0.015 0 0 -0.346714 0.0353429 
40 1 -0.104474 0.0621982 -2.58599 0 -0.5 -9.90936 0.025 0 0 -1.60516 0.163625 
100 1 -0.0681017 -0.156079 -2.57905 0 -0.5 -9.90249 0.015 0 0 -0.346714 0.0353429 
118 1 -0.0372647 0.0456811 -2.56955 0 -0.5 -9.89308 0.015 0 0 -0.346714 0.0353429 
117 1 -0.0596227 -0.212979 -2.5417 0 -0.5 -9.86541 0.015 0 0 -0.346714 0.0353429 
148 1 -0.241992 -0.0342766 -2.53949 -0.171679 -0.397353 -9.91475 0.015 0 0 -0.346714 0.0353429 
51 1 -0.169778 -0.207015 -2.49336 -0.0265052 -0.519812 -9.81351 0.025 0 0 -1.60516 0.163625 
282 1 -0.108413 -0.212344 -2.48141 -0.2609 -0.673185 -9.79333 0.015 0 0 -0.346714 0.0353429 
90 1 -0.146535 0.0636669 -2.43562 0 -0.5 -9.75937 0.015 0 0 -0.346714 0.0353429 
11 1 -0.0897227 -0.0266167 -2.41732 0.022917 -0.457889 -9.75223 0.025 0 0 -1.60516 0.163625 
60 1 -0.0770515 -0.204072 -2.39959 0 -0.5 -9.72307 0.015 0 0 -0.346714 0.0353429 
50 1 -0.130982 0.0203549 -2.39696 0 -0.5 -9.72042 0.025 0 0 -1.60516 0.163625 
105 1 -0.329481 0.00334186 -2.32 -0.321192 -0.368687 -9.63594 0.015 0 0 -0.346714 0.0353429 
74 1 -0.0790012 0.00789336 -2.33755 0 -0.5 -9.66029 0.015 0 0 -0.346714 0.0353429 
44 1 -0.125916 -0.212403 -2.29236 0 -0.5 -9.61428 0.025 0 0 -1.60516 0.163625 
76 1 -0.0202065 0.03607 -2.31045 0 -0.5 -9.63272 0.015 0 0 -0.346714 0.0353429 
36 1 -0.103411 -0.165688 -2.25571 0 -0.5 -9.5768 0.025 0 0 -1.60516 0.163625 
29 1 -0.0788351 0.0501821 -2.26596 0 -0.5 -9.5873 0.025 0 0 -1.60516 0.163625 
54 1 -0.198665 -0.14337 -2.21379 -0.0956439 -0.529683 -9.5255 0.015 0 0 -0.346714 0.0353429 
114 1 -0.072197 -0.135402 -2.1951 -0.00040144 -0.499666 -9.51459 0.015 0 0 -0.346714 0.0353429 
73 1 -0.0639552 -0.186233 -2.14327 0 -0.5 -9.46095 0.015 0 0 -0.346714 0.0353429 
2 1 -0.110349 -0.0389288 -2.13345 0 -0.5 -9.45074 0.025 0 0 -1.60516 0.163625 
113 1 -0.118506 0.0851977 -2.15418 0 -0.5 -9.47223 0.015 0 0 -0.346714 0.0353429 
146 1 -0.109965 -0.199084 -2.10486 0 -0.5 -9.42102 0.015 0 0 -0.346714 0.0353429 
12 1 -0.0363281 0.0703359 -2.10749 0 -0.5 -9.42377 0.025 0 0 -1.60516 0.163625 
88 1 -0.0666498 0.0279185 -2.0771 0 -0.5 -9.39208 0.015 0 0 -0.346714 0.0353429 
57 1 -0.120673 -0.0829395 -2.05826 0 -0.5 -9.37236 0.015 0 0 -0.346714 0.0353429 
99 1 -0.146283 -0.134483 -2.03625 0 -0.5 -9.34931 0.015 0 0 -0.346714 0.0353429 
10 1 -0.0487351 0.0738913 -2.04178 0.0635655 -0.375939 -9.406 0.025 0 0 -1.60516 0.163625 
34 1 -0.138562 0.034511 -1.98535 0 -0.5 -9.29575 0.025 0 0 -1.60516 0.163625 
19 1 -0.0715757 -0.124748 -1.96883 0 -0.5 -9.27828 0.025 0 0 -1.60516 0.163625 
66 1 -0.0281121 -0.147177 -1.96187 0 -0.5 -9.27093 0.015 0 0 -0.346714 0.0353429 
83 1 -0.108229 -0.104854 -1.97541 0 -0.5 -9.28525 0.015 0 0 -0.346714 0.0353429 
71 1 -0.145263 0.0781975 -1.94731 0 -0.5 -9.25553 0.015 0 0 -0.346714 0.0353429 
81 1 -0.0147843 0.0653113 -1.93343 0.07636 -0.438847 -9.21844 0.015 0 0 -0.346714 0.0353429 
67 1 -0.0183057 -0.191611 -1.9162 0 -0.5 -9.22247 0.015 0 0 -0.346714 0.0353429 
24 1 -0.138394 -0.164548 -1.89381 0 -0.5 -9.19863 0.025 0 0 -1.60516 0.163625 
133 1 -0.127566 -0.0480556 -1.878 0 -0.5 -9.18175 0.015 0 0 -0.346714 0.0353429 
95 1 -0.10482 0.0393122 -1.87167 0 -0.5 -9.17498 0.015 0 0 -0.346714 0.0353429 
39 1 -0.0696793 0.08901 -1.87147 0 -0.5 -9.17479 0.025 0 0 -1.60516 0.163625 
70 1 -0.107191 -0.138076 -1.80486 0 -0.5 -9.10327 0.015 0 0 -0.346714 0.0353429 
103 1 -0.135939 -0.120278 -1.82701 0 -0.5 -9.12711 0.015 0 0 -0.346714 0.0353429 
143 1 -0.11631 0.0976819 -1.81123 0 -0.5 -9.11014 0.015 0 0 -0.346714 0.0353429 
97 1 -0.0338223 -0.134856 -1.77568 0 -0.5 -9.07178 0.015 0 0 -0.346714 0.0353429 
115 1 -0.076478 -0.0995689 -1.77495 0 -0.5 -9.071 0.015 0 0 -0.346714 0.0353429 
85 1 -0.13789 0.0220152 -1.77061 0 -0.5 -9.06629 0.015 0 0 -0.346714 0.0353429 
28 1 -0.0685748 -0.16193 -1.75937 0 -0.5 -9.05413 0.025 0 0 -1.60516 0.163625 
134 1 -0.137197 0.0623666 -1.74156 0 -0.5 -9.0348 0.015 0 0 -0.346714 0.0353429 
126 1 -0.131918 -0.065662 -1.71269 -0.0288748 -0.539424 -8.98963 0.015 0 0 -0.346714 0.0353429 
120 1 -0.148569 0.111261 -1.72521 0 -0.5 -9.01704 0.015 0 0 -0.346714 0.0353429 
77 1 -0.0297287 0.0907485 -1.72884 0 -0.5 -9.02097 0.015 0 0 -0.346714 0.0353429 
96 1 -0.131998 -0.134919 -1.69381 0 -0.5 -8.98281 0.015 0 0 -0.346714 0.0353429 
38 1 -0.121616 -0.0938121 -1.65715 0 -0.5 -8.94268 0.025 0 0 -1.60516 0.163625 
130 1 -0.0642546 -0.0995593 -1.58885 0 -0.5 -8.86744 0.015 0 0 -0.346714 0.0353429 
23 1 -0.134189 0.042519 -1.59044 0 -0.5 -8.86921 0.025 0 0 -1.60516 0.163625 
150 1 -0.100106 -0.122793 -1.54895 0 -0.5 -8.8232 0.015 0 0 -0.346714 0.0353429 
18 1 -0.106015 0.107686 -1.54676 0 -0.5 -8.82075 0.025 0 0 -1.60516 0.163625 
4 1 -0.0330873 0.120857 -1.54816 0 -0.5 -8.82232 0.025 0 0 -1.60516 0.163625 
106 1 -0.169037 0.290233 -1.54637 -0.0998962 -0.230395 -8.90329 0.015 0 0 -0.346714 0.0353429 
31 1 -0.140814 -0.157123 -1.52324 0 -0.5 -8.79455 0.025 0 0 -1.60516 0.163625 
110 1 -0.0868918 -0.167583 -1.47685 0 -0.5 -8.74266 0.015 0 0 -0.346714 0.0353429 
93 1 -0.0244706 -0.155842 -1.45337 0 -0.5 -8.71627 0.015 0 0 -0.346714 0.0353429 
17 1 -0.134634 -0.0419735 -1.44152 0 -0.5 -8.70293 0.025 0 0 -1.60516 0.163625 
136 1 -0.0832352 0.0510076 -1.44726 0 -0.5 -8.7094 0.015 0 0 -0.346714 0.0353429 
30 1 -0.0481876 0.0788572 -1.4336 0 -0.5 -8.694 0.025 0 0 -1.60516 0.163625 
109 1 -0.0676248 0.12608 -1.43544 0 -0.5 -8.69606 0.015 0 0 -0.346714 0.0353429 
1 1 -0.15611 0.409073 -1.41386 -0.021394 -0.0706631 -8.76825 0.025 0 0 -1.60516 0.163625 
108 1 -0.089121 -0.135176 -1.36221 0 -0.5 -8.61307 0.015 0 0 -0.346714 0.0353429 
69 1 -0.020474 -0.114917 -1.32398 0 -0.5 -8.56941 0.015 0 0 -0.346714 0.0353429 
35 1 -0.146938 0.058792 -1.3126 0 -0.5 -8.55637 0.025 0 0 -1.60516 0.163625 
102 1 -0.11709 -0.135101 -1.25973 0 -0.5 -8.49554 0.015 0 0 -0.346714 0.0353429 
139 1 -0.104092 -0.077428 -1.25999 0 -0.5 -8.49584 0.015 0 0 -0.346714 0.0353429 
144 1 -0.0691235 -0.0745259 -1.26159 0 -0.5 -8.4977 0.015 0 0 -0.346714 0.0353429 
22 1 -0.102489 -0.00969353 -1.26865 0 -0.5 -8.50584 0.025 0 0 -1.60516 0.163625 
14 1 -0.0571303 -0.143025 -1.24132 0 -0.5 -8.47426 0.025 0 0 -1.60516 0.163625 
55 1 -0.096002 0.0964058 -1.2333 -7.52477e-06 -0.49998 -8.46497 0.015 0 0 -0.346714 0.0353429 
141 1 -0.136875 -0.0617358 -1.21619 0 -0.5 -8.44512 0.015 0 0 -0.346714 0.0353429 
87 1 -0.113676 0.0595876 -1.16629 0 -0.5 -8.38695 0.015 0 0 -0.346714 0.0353429 
21 1 -0.0470047 0.1415 -1.19142 0 -0.5 -8.41628 0.025 0 0 -1.60516 0.163625 
94 1 -0.343144 0.164197 -1.18534 -0.356499 -0.190573 -8.45251 0.015 0 0 -0.346714 0.0353429 
107 1 -0.141609 -0.146052 -1.12139 0 -0.5 -8.33427 0.015 0 0 -0.346714 0.0353429 
112 1 -0.073338 -0.0627213 -1.07695 0 -0.5 -8.28178 0.015 0 0 -0.346714 0.0353429 
84 1 -0.116406 0.0177863 -1.08282 0 -0.5 -8.28875 0.015 0 0 -0.346714 0.0353429 
147 1 -0.100309 0.129431 -1.09444 0 -0.5 -8.30248 0.015 0 0 -0.346714 0.0353429 
142 1 -0.0724928 -0.121252 -1.0401 0 -0.5 -8.23803 0.015 0 0 -0.346714 0.0353429 
47 1 -0.140465 0.10145 -1.03994 0 -0.5 -8.23784 0.025 0 0 -1.60516 0.163625 
145 1 -0.0934491 0.0941128 -1.03647 0 -0.5 -8.23372 0.015 0 0 -0.346714 0.0353429 
6 1 -0.0459399 -0.0550018 -1.00255 0.101461 -0.428163 -8.19721 0.025 0 0 -1.60516 0.163625 
80 1 -0.102893 0.0648925 -1.00952 0 -0.5 -8.20154 0.015 0 0 -0.346714 0.0353429 
32 1 -0.187968 -0.153059 -0.95525 -0.0613285 -0.540948 -8.13427 0.025 0 0 -1.60516 0.163625 
135 1 -0.140472 -0.0531074 -0.960096 0 -0.5 -8.14219 0.015 0 0 -0.346714 0.0353429 
62 1 -0.0849655 0.154406 -0.96057 0 -0.5 -8.14278 0.015 0 0 -0.346714 0.0353429 
280 1 -0.157614 0.431145 -0.957971 -0.323138 -0.0374805 -8.20486 0.015 0 0 -0.346714 0.0353429 
138 1 -0.0317395 -0.118684 -0.927607 0 -0.5 -8.10295 0.015 0 0 -0.346714 0.0353429 
128 1 -0.145291 0.0316768 -0.924762 0 -0.5 -8.09951 0.015 0 0 -0.346714 0.0353429 
15 1 -0.0660639 0.0589372 -0.936094 0.0430154 -0.390763 -8.09001 0.025 0 0 -1.60516 0.163625 
121 1 -0.0679495 0.136078 -0.890424 0 -0.5 -8.05782 0.015 0 0 -0.346714 0.0353429 
129 1 -0.0553418 -0.0948006 -0.827243 0 -0.5 -7.98052 0.015 0 0 -0.346714 0.0353429 
13 1 -0.146779 -0.0121789 -0.802059 0 -0.5 -7.94952 0.025 0 0 -1.60516 0.163625 
101 1 -0.102489 -0.00217552 -0.809071 0 -0.5 -7.95815 0.015 0 0 -0.346714 0.0353429 
37 1 -0.0716655 0.100665 -0.810026 0 -0.5 -7.95933 0.025 0 0 -1.60516 0.163625 
61 1 -0.0231802 -0.125065 -0.782539 0 -0.5 -7.92539 0.015 0 0 -0.346714 0.0353429 
79 1 -0.0179342 -0.0910157 -0.782389 0 -0.5 -7.92519 0.015 0 0 -0.346714 0.0353429 
91 1 -0.124131 0.094132 -0.781594 0 -0.5 -7.92421 0.015 0 0 -0.346714 0.0353429 
46 1 -0.032303 0.162569 -0.801031 0 -0.5 -7.94824 0.025 0 0 -1.60516 0.163625 
52 1 -0.100497 -0.10951 -0.7683 0 -0.5 -7.90773 0.015 0 0 -0.346714 0.0353429 
5 1 -0.137704 -0.0815882 -0.749811 0 -0.5 -7.88477 0.025 0 0 -1.60516 0.163625 
7 1 -0.0712578 -0.0425506 -0.744058 0 -0.5 -7.87761 0.025 0 0 -1.60516 0.163625 
20 1 -0.124339 0.0458877 -0.755565 0 -0.5 -7.89194 0.025 0 0 -1.60516 0.163625 
86 1 -0.142939 0.0870587 -0.683386 0 -0.5 -7.80168 0.015 0 0 -0.346714 0.0353429 
58 1 -0.0969698 -0.00810927 -0.653345 0 -0.5 -7.76382 0.015 0 0 -0.346714 0.0353429 
124 1 -0.136447 0.117377 -0.65357 0 -0.5 -7.76411 0.015 0 0 -0.346714 0.0353429 
9 1 -0.0320364 0.121159 -0.677452 0 -0.5 -7.79423 0.025 0 0 -1.60516 0.163625 
65 1 -0.147981 -0.104903 -0.629559 0 -0.5 -7.7337 0.015 0 0 -0.346714 0.0353429 
41 1 -0.107908 0.172758 -0.634037 0 -0.5 -7.73939 0.025 0 0 -1.60516 0.163625 
104 1 -0.138444 0.0592171 -0.564864 0 -0.5 -7.6512 0.015 0 0 -0.346714 0.0353429 
131 1 -0.025873 0.16004 -0.581416 0 -0.5 -7.67239 0.015 0 0 -0.346714 0.0353429 
132 1 -0.0234712 -0.0718319 -0.532423 0 -0.5 -7.60951 0.015 0 0 -0.346714 0.0353429 
48 1 -0.144727 -0.014148 -0.533804 0 -0.5 -7.61127 0.025 0 0 -1.60516 0.163625 
53 1 -0.106432 0.0303403 -0.53014 0 -0.5 -7.60656 0.015 0 0 -0.346714 0.0353429 
49 1 -0.0613084 -0.0942895 -0.498292 0 -0.5 -7.56536 0.025 0 0 -1.60516 0.163625 
16 1 -0.129915 0.129079 -0.492911 0 -0.5 -7.5584 0.025 0 0 -1.60516 0.163625 
82 1 -0.0851821 0.119627 -0.481963 0 -0.5 -7.54417 0.015 0 0 -0.346714 0.0353429 
27 1 -0.0637137 0.155885 -0.491787 0 -0.5 -7.55692 0.025 0 0 -1.60516 0.163625 
63 1 -0.147823 0.185713 -0.465855 0 -0.5 -7.52318 0.015 0 0 -0.346714 0.0353429 
25 1 -0.104447 -0.0602147 -0.416254 0 -0.5 -7.45823 0.025 0 0 -1.60516 0.163625 
127 1 -0.0304133 -0.0483788 -0.435758 0 -0.5 -7.48384 0.015 0 0 -0.346714 0.0353429 
56 1 -0.11556 0.183119 -0.43599 0 -0.5 -7.48413 0.015 0 0 -0.346714 0.0353429 
42 1 -0.132916 0.0327956 -0.391409 0 -0.5 -7.42547 0.025 0 0 -1.60516 0.163625 
123 1 -0.11925 0.0894922 -0.385103 0 -0.5 -7.41713 0.015 0 0 -0.346714 0.0353429 
125 1 -0.0960051 0.145127 -0.358004 0 -0.5 -7.38123 0.015 0 0 -0.346714 0.0353429 
64 1 -0.145219 0.153177 -0.361197 0 -0.5 -7.38544 0.015 0 0 -0.346714 0.0353429 
392 1 -0.0201822 -0.0966234 -0.332527 0 -0.5 -7.34728 0.015 0 0 -0.346714 0.0353429 
361 1 -0.0655065 -0.0688406 -0.336797 0 -0.5 -7.35297 0.015 0 0 -0.346714 0.0353429 
375 1 -0.132504 -0.0317871 -0.320645 0 -0.5 -7.33139 0.015 0 0 -0.346714 0.0353429 
391 1 -0.0665259 0.13019 -0.334449 0 -0.5 -7.34983 0.015 0 0 -0.346714 0.0353429 
353 1 -0.0778865 -0.0154899 -0.287906 0 -0.5 -7.28744 0.015 0 0 -0.346714 0.0353429 
370 1 -0.0476722 0.202061 -0.287959 0 -0.5 -7.28754 0.015 0 0 -0.346714 0.0353429 
432 1 -0.110656 0.0440228 -0.267031 0 -0.5 -7.25929 0.015 0 0 -0.346714 0.0353429 
423 1 -0.035066 0.148352 -0.269853 0 -0.5 -7.26311 0.015 0 0 -0.346714 0.0353429 
449 1 -0.121601 -0.0910298 -0.248324 0 -0.5 -7.23398 0.015 0 0 -0.346714 0.0353429 
348 1 -0.0513657 -0.0840308 -0.217542 -0.0150753 -0.514502 -7.18983 0.025 0 0 -1.60516 0.163625 
409 1 -0.1116 0.0162793 -0.206756 0 -0.5 -7.17737 0.015 0 0 -0.346714 0.0353429 
434 1 -0.110177 0.176235 -0.210411 0 -0.5 -7.18238 0.015 0 0 -0.346714 0.0353429 
304 1 -0.147639 0.142299 -0.166144 0 -0.5 -7.12165 0.025 0 0 -1.60516 0.163625 
414 1 -0.12165 0.0864124 -0.11435 0 -0.5 -7.04994 0.015 0 0 -0.346714 0.0353429 
327 1 -0.047146 0.179396 -0.122661 0 -0.5 -7.06152 0.025 0 0 -1.60516 0.163625 
368 1 -0.0426125 -0.0458969 -0.0870636 0 -0.5 -7.01188 0.015 0 0 -0.346714 0.0353429 
416 1 -0.148865 0.107752 -0.0950626 0 -0.5 -7.02306 0.015 0 0 -0.346714 0.0353429 
422 1 -0.0856494 0.170628 -0.0898591 0 -0.5 -7.0158 0.015 0 0 -0.346714 0.0353429 
328 1 -0.101567 -0.0206404 -0.062016 0 -0.5 -6.97676 0.025 0 0 -1.60516 0.163625 
342 1 -0.0942786 0.130007 -0.060145 0 -0.5 -6.97411 0.025 0 0 -1.60516 0.163625 
440 1 -0.074831 -0.0693668 -0.0235941 0 -0.5 -6.92251 0.015 0 0 -0.346714 0.0353429 
307 1 -0.141488 -0.0516836 -0.0442611 0 -0.5 -6.95174 0.025 0 0 -1.60516 0.163625 
441 1 -0.0895132 0.208957 -0.0436431 0 -0.5 -6.95086 0.015 0 0 -0.346714 0.0353429 
352 1 -0.144025 0.167939 -0.00685896 0 -0.5 -6.89877 0.015 0 0 -0.346714 0.0353429 
330 1 -0.125578 0.224028 -4.29885e-05 0 -0.5 -6.88906 0.025 0 0 -1.60516 0.163625 
388 1 -0.0545692 -0.00531449 0.0198224 0 -0.5 -6.86071 0.015 0 0 -0.346714 0.0353429 
323 1 -0.131477 0.0638135 0.0167452 0 -0.5 -6.86512 0.025 0 0 -1.60516 0.163625 
406 1 -0.0920408 0.167666 0.0327076 0 -0.5 -6.84227 0.015 0 0 -0.346714 0.0353429 
418 1 -0.0554251 -0.0590597 0.0945578 0 -0.5 -6.75299 0.015 0 0 -0.346714 0.0353429 
395 1 -0.110093 -0.00812793 0.10543 0 -0.5 -6.7372 0.015 0 0 -0.346714 0.0353429 
318 1 -0.126425 0.141158 0.0908532 0 -0.5 -6.75839 0.025 0 0 -1.60516 0.163625 
336 1 -0.025747 0.174523 0.104073 0 -0.5 -6.73916 0.025 0 0 -1.60516 0.163625 
331 1 -0.138106 -0.064169 0.115259 0 -0.5 -6.72288 0.025 0 0 -1.60516 0.163625 
313 1 -0.0392615 -0.0203105 0.136054 0 -0.5 -6.69247 0.025 0 0 -1.60516 0.163625 
374 1 -0.133879 0.201467 0.13972 0 -0.5 -6.68707 0.015 0 0 -0.346714 0.0353429 
315 1 -0.0970947 0.0464065 0.172898 0 -0.5 -6.63822 0.025 0 0 -1.60516 0.163625 
445 1 -0.0938501 0.116643 0.1974 0 -0.5 -6.60192 0.015 0 0 -0.346714 0.0353429 
407 1 -0.0713596 0.174089 0.175166 0 -0.5 -6.63488 0.015 0 0 -0.346714 0.0353429 
310 1 -0.0919271 0.211993 0.168321 0 -0.5 -6.64499 0.025 0 0 -1.60516 0.163625 
377 1 -0.128279 -0.0362797 0.234288 0 -0.5 -6.54689 0.015 0 0 -0.346714 0.0353429 
386 1 -0.118095 0.18511 0.227985 0 -0.5 -6.5563 0.015 0 0 -0.346714 0.0353429 
401 1 -0.0913429 -0.00721956 0.286663 0 -0.5 -6.46792 0.015 0 0 -0.346714 0.0353429 
439 1 -0.132801 0.0798967 0.28187 0 -0.5 -6.47517 0.015 0 0 -0.346714 0.0353429 
344 1 -0.147144 0.117445 0.25986 0 -0.5 -6.50843 0.025 0 0 -1.60516 0.163625 
302 1 -0.0567477 -0.0386837 0.289828 0 -0.5 -6.46311 0.025 0 0 -1.60516 0.163625 
314 1 -0.136534 0.0292362 0.304151 0 -0.5 -6.44133 0.025 0 0 -1.60516 0.163625 
355 1 -0.0483468 0.00875851 0.338091 0 -0.5 -6.38944 0.015 0 0 -0.346714 0.0353429 
354 1 -0.0927402 0.177498 0.34722 0 -0.5 -6.37541 0.015 0 0 -0.346714 0.0353429 
413 1 -0.0512121 0.178816 0.328235 0 -0.5 -6.40454 0.015 0 0 -0.346714 0.0353429 
442 1 -0.149932 0.238171 0.33036 0 -0.5 -6.40131 0.015 0 0 -0.346714 0.0353429 
408 1 -0.087028 0.246439 0.344861 0 -0.5 -6.37904 0.015 0 0 -0.346714 0.0353429 
431 1 -0.13363 -0.0103494 0.349768 0 -0.5 -6.37148 0.015 0 0 -0.346714 0.0353429 
382 1 -0.100423 0.279508 0.35728 0.026541 -0.439017 -6.41463 0.015 0 0 -0.346714 0.0353429 
446 1 -0.116317 0.146626 0.384093 0 -0.5 -6.31841 0.015 0 0 -0.346714 0.0353429 
411 1 -0.0485728 0.229056 0.396781 0 -0.5 -6.29869 0.015 0 0 -0.346714 0.0353429 
427 1 -0.0761782 0.375741 0.381732 0.0988458 -0.172977 -6.45186 0.015 0 0 -0.346714 0.0353429 
350 1 -0.147794 -0.000605068 0.470043 0 -0.5 -6.18352 0.025 0 0 -1.60516 0.163625 
399 1 -0.074527 0.0120481 0.451322 0 -0.5 -6.21315 0.015 0 0 -0.346714 0.0353429 
335 1 -0.126459 0.0604178 0.469686 0 -0.5 -6.18411 0.025 0 0 -1.60516 0.163625 
436 1 -0.0854574 0.0669506 0.450266 0 -0.5 -6.21482 0.015 0 0 -0.346714 0.0353429 
341 1 -0.148816 0.180228 0.454618 0 -0.5 -6.20795 0.025 0 0 -1.60516 0.163625 
389 1 -0.0230912 0.253676 0.456485 0 -0.5 -6.20501 0.015 0 0 -0.346714 0.0353429 
384 1 -0.199463 0.2838 0.469556 -0.135564 -0.440896 -6.19795 0.015 0 0 -0.346714 0.0353429 
324 1 -0.0498553 -0.0332968 0.485788 0 -0.5 -6.15851 0.025 0 0 -1.60516 0.163625 
437 1 -0.0723044 0.0432318 0.497904 0 -0.5 -6.13918 0.015 0 0 -0.346714 0.0353429 
385 1 -0.0696212 0.189365 0.480551 0 -0.5 -6.16685 0.015 0 0 -0.346714 0.0353429 
367 1 -0.106717 0.0238308 0.554499 0 -0.5 -6.04805 0.015 0 0 -0.346714 0.0353429 
394 1 -0.145405 0.218684 0.536195 0 -0.5 -6.07767 0.015 0 0 -0.346714 0.0353429 
426 1 -0.0179373 0.248964 0.553845 0 -0.5 -6.04913 0.015 0 0 -0.346714 0.0353429 
358 1 -0.127277 -0.00920758 0.57742 0 -0.5 -6.01077 0.015 0 0 -0.346714 0.0353429 
326 1 -0.145564 0.120454 0.580185 0 -0.5 -6.00626 0.025 0 0 -1.60516 0.163625 
424 1 -0.147334 0.271037 0.563715 -0.0730123 -0.390635 -6.0393 0.015 0 0 -0.346714 0.0353429 
319 1 -0.0687817 0.270025 0.573142 0 -0.5 -6.01773 0.025 0 0 -1.60516 0.163625 
376 1 -0.0824761 0.0357717 0.610152 0 -0.5 -5.95711 0.015 0 0 -0.346714 0.0353429 
433 1 -0.118613 -0.0233348 0.649779 0 -0.5 -5.89148 0.015 0 0 -0.346714 0.0353429 
420 1 -0.037203 -0.0151744 0.65556 0 -0.5 -5.88187 0.015 0 0 -0.346714 0.0353429 
402 1 -0.101682 0.020287 0.661138 0 -0.5 -5.87255 0.015 0 0 -0.346714 0.0353429 
306 1 -0.116739 0.198034 0.659311 0 -0.5 -5.87559 0.025 0 0 -1.60516 0.163625 
412 1 -0.0937388 0.268584 0.668413 0 -0.5 -5.86038 0.015 0 0 -0.346714 0.0353429 
363 1 -0.0911777 0.0973271 0.697414 0 -0.5 -5.81163 0.015 0 0 -0.346714 0.0353429 
360 1 -0.116599 0.121221 0.694866 0 -0.5 -5.81594 0.015 0 0 -0.346714 0.0353429 
397 1 -0.0557758 0.209618 0.703331 0 -0.5 -5.80162 0.015 0 0 -0.346714 0.0353429 
371 1 -0.0449321 0.248104 0.692239 0 -0.5 -5.82036 0.015 0 0 -0.346714 0.0353429 
381 1 -0.0827007 0.243114 0.740103 0 -0.5 -5.73913 0.015 0 0 -0.346714 0.0353429 
322 1 -0.131733 0.0075637 0.745316 0 -0.5 -5.7302 0.025 0 0 -1.60516 0.163625 
373 1 -0.136858 0.154184 0.75939 0 -0.5 -5.70607 0.015 0 0 -0.346714 0.0353429 
396 1 -0.0958984 0.17466 0.74853 0 -0.5 -5.72471 0.015 0 0 -0.346714 0.0353429 
369 1 -0.138958 0.212563 0.763714 0 -0.5 -5.69862 0.015 0 0 -0.346714 0.0353429 
383 1 -0.0262689 0.230803 0.765377 0 -0.5 -5.69577 0.015 0 0 -0.346714 0.0353429 
308 1 -0.0817644 0.0200979 0.800035 -0.0168546 -0.516386 -5.63457 0.025 0 0 -1.60516 0.163625 
438 1 -0.0987495 0.106333 0.801565 0 -0.5 -5.63308 0.015 0 0 -0.346714 0.0353429 
415 1 -0.127182 0.05813 0.833288 0 -0.5 -5.57756 0.015 0 0 -0.346714 0.0353429 
356 1 -0.111476 0.149564 0.812412 0 -0.5 -5.61415 0.015 0 0 -0.346714 0.0353429 
443 1 -0.0906469 0.204658 0.830155 0 -0.5 -5.58305 0.015 0 0 -0.346714 0.0353429 
340 1 -0.149237 0.277237 0.81163 0 -0.5 -5.61552 0.025 0 0 -1.60516 0.163625 
343 1 -0.140775 0.116899 0.844264 0 -0.5 -5.55823 0.025 0 0 -1.60516 0.163625 
349 1 -0.116564 0.236594 0.850424 0 -0.5 -5.54735 0.025 0 0 -1.60516 0.163625 
351 1 -0.0409452 0.235112 0.857625 0 -0.5 -5.53459 0.015 0 0 -0.346714 0.0353429 
390 1 -0.0988461 0.0185899 0.891361 0 -0.5 -5.47446 0.015 0 0 -0.346714 0.0353429 
448 1 -0.0329565 0.02757 0.925872 0 -0.5 -5.41226 0.015 0 0 -0.346714 0.0353429 
347 1 -0.0548177 0.06489 0.934846 0 -0.5 -5.39598 0.025 0 0 -1.60516 0.163625 
378 1 -0.121409 0.113198 0.945351 0 -0.5 -5.37685 0.015 0 0 -0.346714 0.0353429 
312 1 -0.134707 0.172718 0.947082 0 -0.5 -5.37371 0.025 0 0 -1.60516 0.163625 
417 1 -0.0160313 0.272054 0.947069 0 -0.5 -5.37371 0.015 0 0 -0.346714 0.0353429 
346 1 -0.155037 0.351801 0.932769 -0.0151472 -0.325165 -5.43214 0.025 0 0 -1.60516 0.163625 
419 1 -0.111609 0.00951884 0.973609 0 -0.5 -5.32505 0.015 0 0 -0.346714 0.0353429 
362 1 -0.0154426 0.0596087 0.96912 0 -0.5 -5.33329 0.015 0 0 -0.346714 0.0353429 
359 1 -0.107325 0.217399 0.958656 0 -0.5 -5.35252 0.015 0 0 -0.346714 0.0353429 
303 1 -0.0551599 0.236479 0.969773 0 -0.5 -5.33211 0.025 0 0 -1.60516 0.163625 
334 1 -0.103439 0.272448 0.986311 0 -0.5 -5.3016 0.025 0 0 -1.60516 0.163625 
421 1 -0.0930175 0.0895422 0.995788 0 -0.5 -5.28404 0.015 0 0 -0.346714 0.0353429 
320 1 -0.0648735 0.0489287 1.07634 0 -0.5 -5.13228 0.025 0 0 -1.60516 0.163625 
325 1 -0.11479 0.127633 1.05326 0.0497405 -0.588401 -5.18232 0.025 0 0 -1.60516 0.163625 
365 1 -0.150242 0.170236 1.06443 -0.198006 -0.434998 -5.06505 0.015 0 0 -0.346714 0.0353429 
309 1 -0.144284 0.0480309 1.10098 0 -0.5 -5.085 0.025 0 0 -1.60516 0.163625 
372 1 -0.0702168 0.232237 1.08496 0 -0.5 -5.1158 0.015 0 0 -0.346714 0.0353429 
387 1 -0.0901615 0.210452 1.10637 0 -0.5 -5.0746 0.015 0 0 -0.346714 0.0353429 
447 1 -0.122284 0.313789 1.07774 0 -0.5 -5.12964 0.015 0 0 -0.346714 0.0353429 
338 1 -0.0583644 0.301556 1.10402 0 -0.5 -5.07911 0.025 0 0 -1.60516 0.163625 
430 1 -0.123083 0.0953929 1.11764 0 -0.5 -5.05272 0.015 0 0 -0.346714 0.0353429 
403 1 -0.0833248 0.101397 1.12255 0 -0.5 -5.04321 0.015 0 0 -0.346714 0.0353429 
379 1 -0.0327871 0.0503292 1.14629 0 -0.5 -4.99681 0.015 0 0 -0.346714 0.0353429 
393 1 -0.015571 0.272279 1.14034 0 -0.5 -5.00848 0.015 0 0 -0.346714 0.0353429 
357 1 -0.0584785 0.0992145 1.1914 0 -0.5 -4.90744 0.015 0 0 -0.346714 0.0353429 
329 1 -0.127513 0.313789 1.19774 -0.0138001 -0.485947 -4.89482 0.025 0 0 -1.60516 0.163625 
316 1 -0.0983119 0.0341107 1.20159 0 -0.5 -4.88703 0.025 0 0 -1.60516 0.163625 
364 1 -0.0453235 0.0648065 1.22149 0 -0.5 -4.84691 0.015 0 0 -0.346714 0.0353429 
321 1 -0.126579 0.105251 1.22314 0 -0.5 -4.84358 0.025 0 0 -1.60516 0.163625 
333 1 -0.0978849 0.167337 1.22474 0 -0.5 -4.84034 0.025 0 0 -1.60516 0.163625 
380 1 -0.127355 0.209976 1.21353 0 -0.5 -4.863 0.015 0 0 -0.346714 0.0353429 
301 1 -0.0848742 0.270783 1.2039 0.012148 -0.512208 -4.88241 0.025 0 0 -1.60516 0.163625 
428 1 -0.0387226 0.284002 1.21184 0 -0.5 -4.86643 0.015 0 0 -0.346714 0.0353429 
450 1 -0.0322061 0.328898 1.21387 0 -0.5 -4.86231 0.015 0 0 -0.346714 0.0353429 
410 1 -0.145474 0.154536 1.23059 0 -0.5 -4.82847 0.015 0 0 -0.346714 0.0353429 
337 1 -0.142368 0.250838 1.24868 0 -0.5 -4.79158 0.025 0 0 -1.60516 0.163625 
332 1 -0.0814262 0.096266 1.31321 0 -0.5 -4.65758 0.025 0 0 -1.60516 0.163625 
400 1 -0.135353 0.139905 1.31931 0 -0.5 -4.64473 0.015 0 0 -0.346714 0.0353429 
425 1 -0.074083 0.0427868 1.33698 0 -0.5 -4.60725 0.015 0 0 -0.346714 0.0353429 
317 1 -0.129905 0.182055 1.34893 0 -0.5 -4.58175 0.025 0 0 -1.60516 0.163625 
366 1 -0.144217 0.259022 1.34493 0 -0.5 -4.59028 0.015 0 0 -0.346714 0.0353429 
339 1 -0.0802774 0.30466 1.3361 0 -0.5 -4.60912 0.025 0 0 -1.60516 0.163625 
305 1 -0.0452536 0.341472 1.33698 0 -0.5 -4.60725 0.025 0 0 -1.60516 0.163625 
544 1 -0.08101 0.439587 1.32655 -0.39021 -0.130746 -4.69069 0.015 0 0 -0.346714 0.0353429 
404 1 -0.119976 0.0638444 1.37339 0 -0.5 -4.52907 0.015 0 0 -0.346714 0.0353429 
311 1 -0.0354402 0.0583675 1.35468 0 -0.5 -4.56939 0.025 0 0 -1.60516 0.163625 
345 1 -0.128178 0.106674 1.36766 0 -0.5 -4.54143 0.025 0 0 -1.60516 0.163625 
435 1 -0.0960728 0.143976 1.37412 0 -0.5 -4.5275 0.015 0 0 -0.346714 0.0353429 
405 1 -0.038992 0.29339 1.35441 0 -0.5 -4.56997 0.015 0 0 -0.346714 0.0353429 
675 1 -0.137153 0.323289 1.41098 -0.0349785 -0.349711 -4.52432 0.015 0 0 -0.346714 0.0353429 
444 1 -0.0159467 0.339826 1.40084 0 -0.5 -4.46923 0.015 0 0 -0.346714 0.0353429 
714 1 -0.0240605 0.108326 1.43373 0 -0.5 -4.39644 0.015 0 0 -0.346714 0.0353429 
634 1 -0.102181 0.328021 1.4422 0 -0.5 -4.3775 0.025 0 0 -1.60516 0.163625 
690 1 -0.0634806 0.306565 1.44004 0 -0.5 -4.38231 0.015 0 0 -0.346714 0.0353429 
676 1 -0.132839 0.135867 1.45006 0 -0.5 -4.35984 0.015 0 0 -0.346714 0.0353429 
652 1 -0.0683105 0.140338 1.46525 0 -0.5 -4.32551 0.015 0 0 -0.346714 0.0353429 
669 1 -0.0318411 0.317893 1.4688 0 -0.5 -4.31747 0.015 0 0 -0.346714 0.0353429 
629 1 -0.113195 0.187381 1.47733 0 -0.5 -4.29804 0.025 0 0 -1.60516 0.163625 
608 1 -0.0938106 0.0767933 1.50637 0 -0.5 -4.23124 0.025 0 0 -1.60516 0.163625 
682 1 -0.0469368 0.0727812 1.5146 0 -0.5 -4.21211 0.015 0 0 -0.346714 0.0353429 
657 1 -0.0480729 0.110927 1.52372 0 -0.5 -4.19082 0.015 0 0 -0.346714 0.0353429 
606 1 -0.122456 0.261985 1.51012 0.00210743 -0.508228 -4.21837 0.025 0 0 -1.60516 0.163625 
708 1 -0.0786991 0.301401 1.50827 0 -0.5 -4.22682 0.015 0 0 -0.346714 0.0353429 
660 1 -0.0183143 0.314377 1.52719 0 -0.5 -4.18268 0.015 0 0 -0.346714 0.0353429 
701 1 -0.0870486 0.359674 1.51169 0 -0.5 -4.21887 0.015 0 0 -0.346714 0.0353429 
735 1 -0.0832421 0.154669 1.53928 0 -0.5 -4.15423 0.015 0 0 -0.346714 0.0353429 
618 1 -0.13283 0.121164 1.58126 0 -0.5 -4.05387 0.025 0 0 -1.60516 0.163625 
709 1 -0.101732 0.203531 1.57302 0 -0.5 -4.07378 0.015 0 0 -0.346714 0.0353429 
750 1 -0.0862874 0.268179 1.58325 0 -0.5 -4.04906 0.015 0 0 -0.346714 0.0353429 
707 1 -0.0900659 0.103989 1.59668 0 -0.5 -4.0164 0.015 0 0 -0.346714 0.0353429 
640 1 -0.0489559 0.123517 1.62056 0 -0.5 -3.95763 0.025 0 0 -1.60516 0.163625 
680 1 -0.0791761 0.158881 1.61004 0 -0.5 -3.98363 0.015 0 0 -0.346714 0.0353429 
649 1 -0.129761 0.237177 1.59781 0 -0.5 -4.01365 0.025 0 0 -1.60516 0.163625 
616 1 -0.140255 0.329264 1.62127 0 -0.5 -3.95587 0.025 0 0 -1.60516 0.163625 
677 1 -0.113879 0.0943032 1.64939 0 -0.5 -3.88553 0.015 0 0 -0.346714 0.0353429 
725 1 -0.0732043 0.331614 1.64018 0 -0.5 -3.90868 0.015 0 0 -0.346714 0.0353429 
712 1 -0.0372677 0.37455 1.63146 0 -0.5 -3.93056 0.015 0 0 -0.346714 0.0353429 
744 1 -0.107021 0.280725 1.66486 0 -0.5 -3.84629 0.015 0 0 -0.346714 0.0353429 
685 1 -0.0969629 0.327703 1.68403 0 -0.5 -3.79704 0.015 0 0 -0.346714 0.0353429 
692 1 -0.0389882 0.14907 1.71636 0 -0.5 -3.71258 0.015 0 0 -0.346714 0.0353429 
736 1 -0.0864872 0.187793 1.69249 0 -0.5 -3.77517 0.015 0 0 -0.346714 0.0353429 
625 1 -0.0769362 0.246986 1.71454 0.250947 -0.205125 -3.84845 0.025 0 0 -1.60516 0.163625 
722 1 -0.124711 0.326428 1.71643 0 -0.5 -3.71238 0.015 0 0 -0.346714 0.0353429 
674 1 -0.11657 0.383544 1.71145 0 -0.5 -3.72553 0.015 0 0 -0.346714 0.0353429 
699 1 -0.0856858 0.38542 1.70918 0 -0.5 -3.73151 0.015 0 0 -0.346714 0.0353429 
748 1 -0.0192599 0.116831 1.74615 0 -0.5 -3.63302 0.015 0 0 -0.346714 0.0353429 
610 1 -0.108705 0.127549 1.729 0 -0.5 -3.67903 0.025 0 0 -1.60516 0.163625 
683 1 -0.0829948 0.328592 1.73353 0 -0.5 -3.66696 0.015 0 0 -0.346714 0.0353429 
620 1 -0.0294016 0.359755 1.72592 0 -0.5 -3.68727 0.025 0 0 -1.60516 0.163625 
732 1 -0.0691875 0.365647 1.73922 0 -0.5 -3.65166 0.015 0 0 -0.346714 0.0353429 
678 1 -0.0973357 0.257233 1.76883 0 -0.5 -3.57122 0.015 0 0 -0.346714 0.0353429 
636 1 -0.149776 0.302476 1.7589 0 -0.5 -3.59839 0.025 0 0 -1.60516 0.163625 
705 1 -0.0946775 0.105279 1.78646 0 -0.5 -3.52246 0.015 0 0 -0.346714 0.0353429 
641 1 -0.146517 0.169621 1.79649 -0.0165282 -0.51578 -3.48667 0.025 0 0 -1.60516 0.163625 
694 1 -0.138308 0.269231 1.80733 0 -0.5 -3.4639 0.015 0 0 -0.346714 0.0353429 
733 1 -0.0833844 0.302272 1.80823 0 -0.5 -3.46135 0.015 0 0 -0.346714 0.0353429 
698 1 -0.111785 0.345616 1.79689 0 -0.5 -3.49333 0.015 0 0 -0.346714 0.0353429 
696 1 -0.058387 0.331843 1.78124 0 -0.5 -3.53698 0.015 0 0 -0.346714 0.0353429 
648 1 -0.130879 0.386847 1.78918 0 -0.5 -3.51491 0.025 0 0 -1.60516 0.163625 
644 1 -0.140738 0.115303 1.83139 0 -0.5 -3.39503 0.025 0 0 -1.60516 0.163625 
730 1 -0.0250727 0.117246 1.81631 0 -0.5 -3.43839 0.015 0 0 -0.346714 0.0353429 
637 1 -0.0618774 0.136817 1.82384 0 -0.5 -3.41681 0.025 0 0 -1.60516 0.163625 
729 1 -0.0894542 0.167908 1.82612 0 -0.5 -3.41024 0.015 0 0 -0.346714 0.0353429 
745 1 -0.083181 0.264214 1.83721 0.249023 -0.340208 -3.47318 0.015 0 0 -0.346714 0.0353429 
639 1 -0.0603902 0.458192 1.8221 0.113569 0.037071 -3.48484 0.025 0 0 -1.60516 0.163625 
724 1 -0.0903421 0.205009 1.84077 0 -0.5 -3.36786 0.015 0 0 -0.346714 0.0353429 
628 1 -0.0913182 0.320179 1.85807 -0.035052 -0.643145 -3.29871 0.025 0 0 -1.60516 0.163625 
684 1 -0.0877228 0.150489 1.87762 0 -0.5 -3.25877 0.015 0 0 -0.346714 0.0353429 
627 1 -0.145222 0.227459 1.8868 -0.00145318 -0.500708 -3.2305 0.025 0 0 -1.60516 0.163625 
603 1 -0.121744 0.284127 1.89455 0 -0.5 -3.20737 0.025 0 0 -1.60516 0.163625 
679 1 -0.13837 0.120158 1.90113 0 -0.5 -3.18716 0.015 0 0 -0.346714 0.0353429 
691 1 -0.0734004 0.130526 1.914 0 -0.5 -3.14733 0.015 0 0 -0.346714 0.0353429 