ITEM: TIMESTEP
19200
ITEM: NUMBER OF ATOMS
300
ITEM: BOX BOUNDS mm mm mm
-1 1
-1 1
-0.05 2.85
ITEM: ATOMS id type x y z vx vy vz radius fx fy fz mass 
68 1 -0.0997213 0.149271 1.68468 0 -0.5 -3.79538 0.015 0 0 -0.346714 0.0353429 
137 1 -0.0869682 0.193132 1.69406 -0.00924354 -0.479856 -3.77252 0.015 0 0 -0.346714 0.0353429 
119 1 -0.0370509 0.0891886 1.72426 0 -0.5 -3.69169 0.015 0 0 -0.346714 0.0353429 
45 1 -0.0943793 0.100238 1.7042 0 -0.5 -3.74456 0.025 0 0 -1.60516 0.163625 
122 1 -0.0714556 0.159781 1.70435 0.00811842 -0.517403 -3.74294 0.015 0 0 -0.346714 0.0353429 
43 1 -0.116198 0.251785 1.71859 0 -0.5 -3.70669 0.025 0 0 -1.60516 0.163625 
33 1 -0.129286 0.340605 1.70004 0 -0.5 -3.75545 0.025 0 0 -1.60516 0.163625 
111 1 -0.0487783 0.3841 1.71899 0 -0.5 -3.70562 0.015 0 0 -0.346714 0.0353429 
75 1 -0.0493142 0.139672 1.73597 0 -0.5 -3.66039 0.015 0 0 -0.346714 0.0353429 
89 1 -0.129145 0.168308 1.74029 0 -0.5 -3.64882 0.015 0 0 -0.346714 0.0353429 
59 1 -0.0865612 0.296868 1.74981 0 -0.5 -3.62311 0.015 0 0 -0.346714 0.0353429 
78 1 -0.0422369 0.347955 1.72951 0 -0.5 -3.67766 0.015 0 0 -0.346714 0.0353429 
116 1 -0.0399437 0.211977 1.7617 0.36535 -0.287166 -3.7336 0.015 0 0 -0.346714 0.0353429 
92 1 -0.131017 0.391327 1.75986 0 -0.5 -3.59584 0.015 0 0 -0.346714 0.0353429 
8 1 -0.104188 0.107463 1.80759 0 -0.5 -3.46311 0.025 0 0 -1.60516 0.163625 
26 1 -0.0936654 0.189548 1.79777 0.14857 -0.341553 -3.56489 0.025 0 0 -1.60516 0.163625 
98 1 -0.147127 0.240442 1.79661 0 -0.5 -3.49411 0.015 0 0 -0.346714 0.0353429 
3 1 -0.141317 0.305388 1.81262 0 -0.5 -3.44889 0.025 0 0 -1.60516 0.163625 
151 1 -0.0686397 0.322527 1.79623 0 -0.5 -3.49519 0.015 0 0 -0.346714 0.0353429 
117 1 -0.0596227 0.119021 1.84634 0 -0.5 -3.35157 0.015 0 0 -0.346714 0.0353429 
100 1 -0.0681017 0.175921 1.83361 0 -0.5 -3.38865 0.015 0 0 -0.346714 0.0353429 
140 1 -0.125739 0.217556 1.83052 0 -0.5 -3.39758 0.015 0 0 -0.346714 0.0353429 
72 1 -0.105673 0.342796 1.82124 0 -0.5 -3.42426 0.015 0 0 -0.346714 0.0353429 
118 1 -0.0372647 0.377681 1.83686 0 -0.5 -3.37924 0.015 0 0 -0.346714 0.0353429 
40 1 -0.104474 0.394198 1.83123 0 -0.5 -3.39552 0.025 0 0 -1.60516 0.163625 
51 1 -0.152178 0.13814 1.86021 -0.0265052 -0.519812 -3.29967 0.025 0 0 -1.60516 0.163625 
60 1 -0.0770515 0.127928 1.89393 0 -0.5 -3.20923 0.015 0 0 -0.346714 0.0353429 
148 1 -0.127997 0.229566 1.88131 -0.171679 -0.397353 -3.40091 0.015 0 0 -0.346714 0.0353429 
11 1 -0.104535 0.278163 1.895 0 -0.5 -3.20599 0.025 0 0 -1.60516 0.163625 
50 1 -0.130982 0.352355 1.89481 0 -0.5 -3.20658 0.025 0 0 -1.60516 0.163625 
90 1 -0.146535 0.395667 1.882 0 -0.5 -3.24553 0.015 0 0 -0.346714 0.0353429 
44 1 -0.125916 0.119597 1.92892 0 -0.5 -3.10044 0.025 0 0 -1.60516 0.163625 
36 1 -0.103411 0.166312 1.94069 0 -0.5 -3.06296 0.025 0 0 -1.60516 0.163625 
105 1 -0.118082 0.244718 1.91831 -0.215094 -0.173726 -3.27211 0.015 0 0 -0.346714 0.0353429 
74 1 -0.0790012 0.339893 1.91429 0 -0.5 -3.14645 0.015 0 0 -0.346714 0.0353429 
29 1 -0.0788351 0.382182 1.93741 0 -0.5 -3.07346 0.025 0 0 -1.60516 0.163625 
76 1 -0.0202065 0.36807 1.92308 0 -0.5 -3.11888 0.015 0 0 -0.346714 0.0353429 
54 1 -0.135158 0.20834 1.94855 -0.0956439 -0.529683 -3.01166 0.015 0 0 -0.346714 0.0353429 
114 1 -0.0719305 0.196376 1.95999 -0.00040144 -0.499666 -3.00075 0.015 0 0 -0.346714 0.0353429 
146 1 -0.109965 0.132916 1.9881 0 -0.5 -2.90718 0.015 0 0 -0.346714 0.0353429 
73 1 -0.0639552 0.145767 1.9762 0 -0.5 -2.94711 0.015 0 0 -0.346714 0.0353429 
2 1 -0.110349 0.293071 1.97925 0 -0.5 -2.9369 0.025 0 0 -1.60516 0.163625 
88 1 -0.0666498 0.359919 1.99665 0 -0.5 -2.87824 0.015 0 0 -0.346714 0.0353429 
113 1 -0.118506 0.417198 1.97279 0 -0.5 -2.95839 0.015 0 0 -0.346714 0.0353429 
12 1 -0.0363281 0.402336 1.9873 0 -0.5 -2.90993 0.025 0 0 -1.60516 0.163625 
99 1 -0.146283 0.197517 2.0091 0 -0.5 -2.83547 0.015 0 0 -0.346714 0.0353429 
19 1 -0.0715757 0.207252 2.02936 0 -0.5 -2.76444 0.025 0 0 -1.60516 0.163625 
66 1 -0.0281121 0.184823 2.03144 0 -0.5 -2.75709 0.015 0 0 -0.346714 0.0353429 
83 1 -0.108229 0.227146 2.0274 0 -0.5 -2.77141 0.015 0 0 -0.346714 0.0353429 
57 1 -0.120673 0.249061 2.0024 0 -0.5 -2.85852 0.015 0 0 -0.346714 0.0353429 
34 1 -0.138562 0.366511 2.02443 0 -0.5 -2.78191 0.025 0 0 -1.60516 0.163625 
67 1 -0.0183057 0.140389 2.04493 0 -0.5 -2.70863 0.015 0 0 -0.346714 0.0353429 
24 1 -0.138394 0.167452 2.05149 0 -0.5 -2.68479 0.025 0 0 -1.60516 0.163625 
133 1 -0.127566 0.283944 2.05609 0 -0.5 -2.66791 0.015 0 0 -0.346714 0.0353429 
10 1 -0.0939887 0.321075 2.03939 0.0800593 -0.36273 -2.88235 0.025 0 0 -1.60516 0.163625 
95 1 -0.10482 0.371312 2.05792 0 -0.5 -2.66114 0.015 0 0 -0.346714 0.0353429 
81 1 -0.051385 0.367999 2.03341 0 -0.5 -2.75002 0.015 0 0 -0.346714 0.0353429 
71 1 -0.145263 0.410198 2.03576 0 -0.5 -2.74169 0.015 0 0 -0.346714 0.0353429 
39 1 -0.0696793 0.42101 2.05799 0 -0.5 -2.66095 0.025 0 0 -1.60516 0.163625 
28 1 -0.0685748 0.17007 2.08998 0 -0.5 -2.54029 0.025 0 0 -1.60516 0.163625 
70 1 -0.107191 0.193924 2.07711 0 -0.5 -2.58943 0.015 0 0 -0.346714 0.0353429 
97 1 -0.0338223 0.197144 2.08539 0 -0.5 -2.55794 0.015 0 0 -0.346714 0.0353429 
103 1 -0.135939 0.211722 2.0708 0 -0.5 -2.61327 0.015 0 0 -0.346714 0.0353429 
115 1 -0.076478 0.232431 2.08559 0 -0.5 -2.55716 0.015 0 0 -0.346714 0.0353429 
85 1 -0.13789 0.354015 2.08682 0 -0.5 -2.55245 0.015 0 0 -0.346714 0.0353429 
143 1 -0.11631 0.429682 2.07531 0 -0.5 -2.5963 0.015 0 0 -0.346714 0.0353429 
96 1 -0.131998 0.197081 2.10818 0 -0.5 -2.46897 0.015 0 0 -0.346714 0.0353429 
38 1 -0.121616 0.238188 2.1182 0 -0.5 -2.42884 0.025 0 0 -1.60516 0.163625 
126 1 -0.112745 0.292516 2.09383 -0.0288748 -0.539424 -2.47579 0.015 0 0 -0.346714 0.0353429 
134 1 -0.137197 0.394367 2.09495 0 -0.5 -2.52096 0.015 0 0 -0.346714 0.0353429 
77 1 -0.0297287 0.422749 2.09849 0 -0.5 -2.50713 0.015 0 0 -0.346714 0.0353429 
120 1 -0.148569 0.443261 2.09951 0 -0.5 -2.5032 0.015 0 0 -0.346714 0.0353429 
150 1 -0.100106 0.209207 2.14705 0 -0.5 -2.30936 0.015 0 0 -0.346714 0.0353429 
130 1 -0.0642546 0.232441 2.13654 0 -0.5 -2.3536 0.015 0 0 -0.346714 0.0353429 
23 1 -0.134189 0.374519 2.13612 0 -0.5 -2.35537 0.025 0 0 -1.60516 0.163625 
18 1 -0.106015 0.439686 2.14762 0 -0.5 -2.30691 0.025 0 0 -1.60516 0.163625 
4 1 -0.0330873 0.452857 2.14727 0 -0.5 -2.30848 0.025 0 0 -1.60516 0.163625 
31 1 -0.140814 0.174877 2.15375 0 -0.5 -2.28071 0.025 0 0 -1.60516 0.163625 
110 1 -0.0868918 0.164417 2.16568 0 -0.5 -2.22882 0.015 0 0 -0.346714 0.0353429 
93 1 -0.0244706 0.176158 2.17164 0 -0.5 -2.20243 0.015 0 0 -0.346714 0.0353429 
17 1 -0.134634 0.290027 2.17463 0 -0.5 -2.18909 0.025 0 0 -1.60516 0.163625 
136 1 -0.0832352 0.383008 2.17318 0 -0.5 -2.19556 0.015 0 0 -0.346714 0.0353429 
30 1 -0.0481876 0.410857 2.17662 0 -0.5 -2.18016 0.025 0 0 -1.60516 0.163625 
109 1 -0.0676248 0.45808 2.17615 0 -0.5 -2.18222 0.015 0 0 -0.346714 0.0353429 
108 1 -0.089121 0.196824 2.19427 0 -0.5 -2.09923 0.015 0 0 -0.346714 0.0353429 
69 1 -0.020474 0.217083 2.20351 0 -0.5 -2.05557 0.015 0 0 -0.346714 0.0353429 
35 1 -0.146938 0.390792 2.20623 0 -0.5 -2.04253 0.025 0 0 -1.60516 0.163625 
106 1 -0.102886 0.443689 2.20223 -0.00826255 -0.476294 -2.08866 0.015 -0.501765 1.42313 -1.98748 0.0353429 
102 1 -0.11709 0.195969 2.21874 -0 0 -2 0.015 0 0 0 0.0353429 
14 1 -0.0571303 0.18696 2.22307 -0 0 -2 0.025 0 0 0 0.163625 
141 1 -0.136875 0.266764 2.22901 -0 0 -2 0.015 0 0 0 0.0353429 
139 1 -0.104092 0.253657 2.21867 -0 0 -2 0.015 0 0 0 0.0353429 
144 1 -0.0691235 0.256654 2.2183 -0 0 -2 0.015 0 0 0 0.0353429 
22 1 -0.102489 0.321901 2.21663 -0 0 -2 0.025 0 0 0 0.163625 
87 1 -0.113676 0.385123 2.24087 -0 0 -2 0.015 0 0 0 0.0353429 
55 1 -0.0959971 0.425903 2.22497 -0 0 -2 0.015 0 0 0 0.0353429 
1 1 -0.142366 0.459394 2.23837 -0 0 -2 0.025 0 0 0 0.163625 
21 1 -0.0470047 0.46853 2.23488 -0 0 -2 0.025 0 0 0 0.163625 
107 1 -0.141609 0.176798 2.25162 -0 0 -2 0.015 0 0 0 0.0353429 
142 1 -0.0724928 0.196693 2.27123 -0 0 -2 0.015 0 0 0 0.0353429 
149 1 -0.107316 0.253342 2.2709 -0 0 -2 0.015 0 0 0 0.0353429 
112 1 -0.073338 0.257454 2.26231 -0 0 -2 0.015 0 0 0 0.0353429 
94 1 -0.127866 0.29863 2.25784 -0 0 -2 0.015 0 0 0 0.0353429 
84 1 -0.116406 0.338316 2.2609 -0 0 -2 0.015 0 0 0 0.0353429 
47 1 -0.140465 0.419385 2.27127 -0 0 -2 0.025 0 0 0 0.163625 
145 1 -0.0934491 0.411838 2.27212 -0 0 -2 0.015 0 0 0 0.0353429 
147 1 -0.100309 0.450661 2.25809 -0 0 -2 0.015 0 0 0 0.0353429 
32 1 -0.149633 0.185622 2.29066 -0 0 -2 0.025 0 0 0 0.163625 
138 1 -0.0317395 0.192376 2.29876 -0 0 -2 0.015 0 0 0 0.0353429 
6 1 -0.109435 0.215083 2.28284 -0 0 -2 0.025 0 0 0 0.163625 
135 1 -0.140472 0.259953 2.29076 -0 0 -2 0.015 0 0 0 0.0353429 
15 1 -0.0916636 0.308509 2.28468 -0 0 -2 0.025 0 0 0 0.163625 
128 1 -0.145291 0.342562 2.29947 -0 0 -2 0.015 0 0 0 0.0353429 
80 1 -0.102893 0.380978 2.27868 -0 0 -2 0.015 0 0 0 0.0353429 
62 1 -0.0849655 0.467496 2.29066 -0 0 -2 0.015 0 0 0 0.0353429 
129 1 -0.0553418 0.210019 2.32372 -0 0 -2 0.015 0 0 0 0.0353429 
13 1 -0.146779 0.291061 2.33006 -0 0 -2 0.025 0 0 0 0.163625 
101 1 -0.102489 0.301504 2.32829 -0 0 -2 0.015 0 0 0 0.0353429 
37 1 -0.0716655 0.404405 2.32805 -0 0 -2 0.025 0 0 0 0.163625 
121 1 -0.0679495 0.444838 2.30797 -0 0 -2 0.015 0 0 0 0.0353429 
46 1 -0.032303 0.465744 2.33031 -0 0 -2 0.025 0 0 0 0.163625 
61 1 -0.0231802 0.176945 2.33497 -0 0 -2 0.015 0 0 0 0.0353429 
52 1 -0.100497 0.1916 2.33856 -0 0 -2 0.015 0 0 0 0.0353429 
79 1 -0.0179342 0.210984 2.335 -0 0 -2 0.015 0 0 0 0.0353429 
5 1 -0.137704 0.218352 2.34325 -0 0 -2 0.025 0 0 0 0.163625 
7 1 -0.0712578 0.257024 2.34471 -0 0 -2 0.025 0 0 0 0.163625 
20 1 -0.124339 0.346193 2.3418 -0 0 -2 0.025 0 0 0 0.163625 
86 1 -0.142939 0.382764 2.36019 -0 0 -2 0.015 0 0 0 0.0353429 
91 1 -0.124131 0.396082 2.33521 -0 0 -2 0.015 0 0 0 0.0353429 
9 1 -0.0320364 0.416484 2.36171 -0 0 -2 0.025 0 0 0 0.163625 
65 1 -0.147981 0.187337 2.37404 -0 0 -2 0.015 0 0 0 0.0353429 
58 1 -0.0969698 0.285666 2.36791 -0 0 -2 0.015 0 0 0 0.0353429 
104 1 -0.138444 0.347252 2.39086 -0 0 -2 0.015 0 0 0 0.0353429 
124 1 -0.136447 0.411167 2.36785 -0 0 -2 0.015 0 0 0 0.0353429 
131 1 -0.025873 0.449155 2.38654 -0 0 -2 0.015 0 0 0 0.0353429 
41 1 -0.107908 0.465288 2.37289 -0 0 -2 0.025 0 0 0 0.163625 
49 1 -0.0613084 0.18937 2.40836 -0 0 -2 0.025 0 0 0 0.163625 
127 1 -0.0304133 0.231126 2.42499 -0 0 -2 0.015 0 0 0 0.0353429 
132 1 -0.0234712 0.214078 2.39938 -0 0 -2 0.015 0 0 0 0.0353429 
48 1 -0.144727 0.271852 2.39901 -0 0 -2 0.025 0 0 0 0.163625 
53 1 -0.106432 0.3161 2.39998 -0 0 -2 0.015 0 0 0 0.0353429 
16 1 -0.129915 0.412384 2.4098 -0 0 -2 0.025 0 0 0 0.163625 
82 1 -0.0851821 0.402207 2.41269 -0 0 -2 0.015 0 0 0 0.0353429 
27 1 -0.0637137 0.439115 2.41009 -0 0 -2 0.025 0 0 0 0.163625 
63 1 -0.147823 0.467223 2.41696 -0 0 -2 0.015 0 0 0 0.0353429 
56 1 -0.11556 0.462639 2.42492 -0 0 -2 0.015 0 0 0 0.0353429 
25 1 -0.104447 0.217985 2.43021 -0 0 -2 0.025 0 0 0 0.163625 
42 1 -0.132916 0.309326 2.43688 -0 0 -2 0.025 0 0 0 0.163625 
123 1 -0.11925 0.365597 2.43858 -0 0 -2 0.015 0 0 0 0.0353429 
125 1 -0.0960051 0.419402 2.44592 -0 0 -2 0.015 0 0 0 0.0353429 
64 1 -0.145219 0.427667 2.44504 -0 0 -2 0.015 0 0 0 0.0353429 
289 1 0.0955533 0.26824 1.62259 0.0203384 -0.134604 -4.17367 0.015 0 0 -0.346714 0.0353429 
284 1 0.0751989 0.113885 1.68663 -0.0310215 -0.613333 -3.86839 0.015 0 0 -0.346714 0.0353429 
203 1 0.0667127 0.0872328 1.70245 0 -0.5 -3.74917 0.015 0 0 -0.346714 0.0353429 
206 1 0.0896191 0.138505 1.70847 0.129533 -0.558046 -3.77626 0.015 0 0 -0.346714 0.0353429 
237 1 0.117019 0.148451 1.71566 0 -0.5 -3.71444 0.015 0 0 -0.346714 0.0353429 
259 1 0.149131 0.127826 1.721 0 -0.5 -3.70032 0.015 0 0 -0.346714 0.0353429 
199 1 0.0903504 0.21055 1.71453 -0.00278668 -0.321029 -3.84533 0.025 0 0 -1.60516 0.163625 
171 1 0.0955264 0.289107 1.72052 0 -0.5 -3.70159 0.025 0 0 -1.60516 0.163625 
214 1 0.144386 0.273733 1.7094 0 -0.5 -3.73093 0.015 0 0 -0.346714 0.0353429 
213 1 0.0350777 0.32657 1.70255 0 -0.5 -3.74888 0.015 0 0 -0.346714 0.0353429 
272 1 0.0168276 0.361548 1.69911 0 -0.5 -3.7579 0.015 0 0 -0.346714 0.0353429 
241 1 0.0849537 0.357018 1.71272 0 -0.5 -3.72219 0.015 0 0 -0.346714 0.0353429 
226 1 0.110692 0.335304 1.71693 0 -0.5 -3.71111 0.015 0 0 -0.346714 0.0353429 
220 1 0.0290299 0.11282 1.74865 -0.0669262 -0.554313 -3.61515 0.015 0 0 -0.346714 0.0353429 
263 1 0.025742 0.148494 1.72962 0 -0.5 -3.67736 0.015 0 0 -0.346714 0.0353429 
177 1 0.140014 0.242594 1.7503 0.112606 -0.398162 -3.63016 0.025 0 0 -1.60516 0.163625 
290 1 0.142718 0.284278 1.7712 0.0439512 -0.299137 -3.5038 0.015 0 0 -0.346714 0.0353429 
166 1 0.0609489 0.391253 1.77892 0 -0.5 -3.54346 0.025 0 0 -1.60516 0.163625 
184 1 0.11251 0.389841 1.77461 0 -0.5 -3.55533 0.025 0 0 -1.60516 0.163625 
216 1 0.0820191 0.141995 1.81482 0.0481324 -0.610657 -3.40753 0.015 0 0 -0.346714 0.0353429 
222 1 0.123753 0.129661 1.81374 0 -0.5 -3.44565 0.015 0 0 -0.346714 0.0353429 
249 1 0.0491797 0.327421 1.79076 0 -0.5 -3.51049 0.015 0 0 -0.346714 0.0353429 
270 1 0.0946744 0.319669 1.79996 0 -0.5 -3.48469 0.015 0 0 -0.346714 0.0353429 
294 1 0.128315 0.352152 1.81085 0 -0.5 -3.45389 0.015 0 0 -0.346714 0.0353429 
180 1 0.0424183 0.14605 1.83897 -0.021889 -0.504465 -3.36294 0.025 0 0 -1.60516 0.163625 
253 1 0.123075 0.237069 1.84201 0 -0.5 -3.36423 0.015 0 0 -0.346714 0.0353429 
170 1 0.154052 0.295523 1.8319 0.161731 -0.381986 -3.41723 0.025 0 0 -1.60516 0.163625 
231 1 0.0350342 0.34962 1.83814 0 -0.5 -3.37551 0.015 0 0 -0.346714 0.0353429 
209 1 0.0969746 0.125248 1.87268 0 -0.5 -3.27358 0.015 0 0 -0.346714 0.0353429 
282 1 0.0648243 0.234651 1.85877 -0.2609 -0.673185 -3.27949 0.015 0 0 -0.346714 0.0353429 
169 1 0.0892107 0.358668 1.8533 0 -0.5 -3.33117 0.025 0 0 -1.60516 0.163625 
296 1 0.146983 0.241001 1.89664 0 -0.5 -3.20099 0.015 0 0 -0.346714 0.0353429 
278 1 0.113612 0.259965 1.89542 0 -0.5 -3.20472 0.015 0 0 -0.346714 0.0353429 
257 1 0.139837 0.372641 1.89575 0 -0.5 -3.20374 0.015 0 0 -0.346714 0.0353429 
235 1 0.134937 0.128385 1.9301 0 -0.5 -3.09671 0.015 0 0 -0.346714 0.0353429 
168 1 0.0261487 0.162104 1.92221 0 -0.5 -3.12163 0.025 0 0 -1.60516 0.163625 
269 1 0.141487 0.157504 1.92033 0 -0.5 -3.12751 0.015 0 0 -0.346714 0.0353429 
185 1 0.0936576 0.206666 1.9346 0 -0.5 -3.08248 0.025 0 0 -1.60516 0.163625 
217 1 0.133752 0.207691 1.92912 0 -0.5 -3.09985 0.015 0 0 -0.346714 0.0353429 
182 1 0.114565 0.317779 1.92664 0 -0.5 -3.1077 0.025 0 0 -1.60516 0.163625 
162 1 0.0478022 0.362457 1.91699 0 -0.5 -3.13801 0.025 0 0 -1.60516 0.163625 
176 1 0.0399362 0.414472 1.92917 0 -0.5 -3.09965 0.025 0 0 -1.60516 0.163625 
286 1 0.147755 0.40687 1.92843 0 -0.5 -3.10201 0.015 0 0 -0.346714 0.0353429 
153 1 0.0895866 0.12276 1.95072 0 -0.5 -3.03069 0.025 0 0 -1.60516 0.163625 
211 1 0.0694768 0.180972 1.9634 0 -0.5 -2.98939 0.015 0 0 -0.346714 0.0353429 
251 1 0.126174 0.275559 1.95905 0 -0.5 -3.00361 0.015 0 0 -0.346714 0.0353429 
204 1 0.134881 0.169248 1.98851 0 -0.5 -2.90581 0.015 0 0 -0.346714 0.0353429 
161 1 0.135356 0.22685 1.98785 0 -0.5 -2.90806 0.025 0 0 -1.60516 0.163625 
230 1 0.118982 0.267372 1.99906 0 -0.5 -2.87 0.015 0 0 -0.346714 0.0353429 
291 1 0.140432 0.351523 1.97294 0 -0.5 -2.9579 0.015 0 0 -0.346714 0.0353429 
228 1 0.0279693 0.376593 1.99295 0 -0.5 -2.8908 0.015 0 0 -0.346714 0.0353429 
159 1 0.087245 0.410208 1.9738 0 -0.5 -2.95505 0.025 0 0 -1.60516 0.163625 
300 1 0.149285 0.40424 1.98204 0 -0.5 -2.92758 0.015 0 0 -0.346714 0.0353429 
175 1 0.0941494 0.162059 2.01141 0 -0.5 -2.82742 0.025 0 0 -1.60516 0.163625 
192 1 0.134392 0.325049 2.0266 0 -0.5 -2.77425 0.025 0 0 -1.60516 0.163625 
285 1 0.0870748 0.362259 2.02765 0 -0.5 -2.77053 0.015 0 0 -0.346714 0.0353429 
256 1 0.0868225 0.394057 2.0242 0 -0.5 -2.78269 0.015 0 0 -0.346714 0.0353429 
250 1 0.138716 0.408193 2.02253 0 -0.5 -2.78858 0.015 0 0 -0.346714 0.0353429 
246 1 0.0494565 0.42901 2.02812 0 -0.5 -2.76886 0.015 0 0 -0.346714 0.0353429 
240 1 0.0956629 0.42588 2.02961 0 -0.5 -2.76356 0.015 0 0 -0.346714 0.0353429 
202 1 0.126943 0.160119 2.05587 0 -0.5 -2.6687 0.015 0 0 -0.346714 0.0353429 
299 1 0.0153001 0.185541 2.03764 0 -0.5 -2.73492 0.015 0 0 -0.346714 0.0353429 
293 1 0.0548164 0.201145 2.03265 0 -0.5 -2.75277 0.015 0 0 -0.346714 0.0353429 
200 1 0.112803 0.218149 2.04792 0 -0.5 -2.69783 0.025 0 0 -1.60516 0.163625 
255 1 0.0340792 0.376865 2.0518 0 -0.5 -2.68361 0.015 0 0 -0.346714 0.0353429 
252 1 0.131256 0.385424 2.05181 0 -0.5 -2.68361 0.015 0 0 -0.346714 0.0353429 
275 1 0.0211058 0.408962 2.03654 0 -0.5 -2.73884 0.015 0 0 -0.346714 0.0353429 
189 1 0.0509787 0.159512 2.07754 0 -0.5 -2.58786 0.025 0 0 -1.60516 0.163625 
245 1 0.0868358 0.185715 2.06262 0 -0.5 -2.64378 0.015 0 0 -0.346714 0.0353429 
247 1 0.0532922 0.213565 2.07348 0 -0.5 -2.60317 0.015 0 0 -0.346714 0.0353429 
154 1 0.116388 0.305122 2.08507 0 -0.5 -2.55912 0.025 0 0 -1.60516 0.163625 
190 1 0.11779 0.418732 2.09096 0 -0.5 -2.53646 0.025 0 0 -1.60516 0.163625 
287 1 0.130384 0.15035 2.09538 0 -0.5 -2.51929 0.015 0 0 -0.346714 0.0353429 
210 1 0.0872868 0.157386 2.12076 0 -0.5 -2.41845 0.015 0 0 -0.346714 0.0353429 
288 1 0.0326968 0.195446 2.10171 0 -0.5 -2.49457 0.015 0 0 -0.346714 0.0353429 
165 1 0.148355 0.248191 2.11856 0 -0.5 -2.42737 0.025 0 0 -1.60516 0.163625 
295 1 0.103955 0.364828 2.10361 0 -0.5 -2.48702 0.015 0 0 -0.346714 0.0353429 
156 1 0.0411221 0.413187 2.10515 0 -0.5 -2.48103 0.025 0 0 -1.60516 0.163625 
233 1 0.0406697 0.175292 2.15043 0 -0.5 -2.29494 0.015 0 0 -0.346714 0.0353429 
260 1 0.0198171 0.20512 2.14257 0 -0.5 -2.32829 0.015 0 0 -0.346714 0.0353429 
181 1 0.070397 0.196344 2.1254 0 -0.5 -2.39961 0.025 0 0 -1.60516 0.163625 
152 1 0.089118 0.263144 2.13842 0 -0.5 -2.34575 0.025 0 0 -1.60516 0.163625 
279 1 0.11959 0.323322 2.14384 0 -0.5 -2.32299 0.015 0 0 -0.346714 0.0353429 
262 1 0.0888361 0.357008 2.14751 0 -0.5 -2.3074 0.015 0 0 -0.346714 0.0353429 
234 1 0.0945525 0.406871 2.14448 0 -0.5 -2.32025 0.015 0 0 -0.346714 0.0353429 
208 1 0.0680799 0.443251 2.14832 0 -0.5 -2.30396 0.015 0 0 -0.346714 0.0353429 
212 1 0.0737637 0.188983 2.18293 0 -0.5 -2.15161 0.015 0 0 -0.346714 0.0353429 
236 1 0.111584 0.202462 2.18294 0 -0.5 -2.15152 0.015 0 0 -0.346714 0.0353429 
207 1 0.128901 0.374384 2.15817 0 -0.5 -2.26168 0.015 0 0 -0.346714 0.0353429 
194 1 0.131621 0.434036 2.15647 0 -0.5 -2.26904 0.025 0 0 -1.60516 0.163625 
223 1 0.0343911 0.456571 2.16702 0 -0.5 -2.22293 0.015 0 0 -0.346714 0.0353429 
178 1 0.0370442 0.173146 2.20125 0 -0.5 -2.06636 0.025 0 0 -1.60516 0.163625 
224 1 0.132465 0.231362 2.20132 0 -0.5 -2.06597 0.015 0 0 -0.346714 0.0353429 
221 1 0.0987988 0.268271 2.20614 0 -0.5 -2.04302 0.015 0 0 -0.346714 0.0353429 
242 1 0.131055 0.280908 2.19385 0 -0.5 -2.10119 0.015 0 0 -0.346714 0.0353429 
191 1 0.0609008 0.403599 2.18501 0 -0.5 -2.1421 0.025 0 0 -1.60516 0.163625 
258 1 0.135516 0.183364 2.22148 -0 0 -2 0.015 0 0 0 0.0353429 
187 1 0.0681893 0.23526 2.22952 -0 0 -2 0.025 0 0 0 0.163625 
232 1 0.13999 0.251489 2.24333 -0 0 -2 0.015 0 0 0 0.0353429 
179 1 0.136485 0.334335 2.21733 -0 0 -2 0.025 0 0 0 0.163625 
248 1 0.0851139 0.371469 2.22456 -0 0 -2 0.015 0 0 0 0.0353429 
174 1 0.030822 0.423363 2.24381 -0 0 -2 0.025 0 0 0 0.163625 
157 1 0.115469 0.419287 2.2315 -0 0 -2 0.025 0 0 0 0.163625 
264 1 0.0357265 0.464363 2.22567 -0 0 -2 0.015 0 0 0 0.0353429 
277 1 0.0674794 0.455945 2.23245 -0 0 -2 0.015 0 0 0 0.0353429 
205 1 0.0941484 0.176621 2.24785 -0 0 -2 0.015 0 0 0 0.0353429 
201 1 0.0267726 0.186335 2.26743 -0 0 -2 0.025 0 0 0 0.163625 
276 1 0.0937292 0.21136 2.26147 -0 0 -2 0.015 0 0 0 0.0353429 
227 1 0.137271 0.1866 2.25332 -0 0 -2 0.015 0 0 0 0.0353429 
158 1 0.0866624 0.276126 2.26674 -0 0 -2 0.025 0 0 0 0.163625 
254 1 0.137401 0.322401 2.27236 -0 0 -2 0.015 0 0 0 0.0353429 
172 1 0.128434 0.362446 2.26247 -0 0 -2 0.025 0 0 0 0.163625 
229 1 0.102013 0.176876 2.301 -0 0 -2 0.015 0 0 0 0.0353429 
265 1 0.115746 0.204637 2.28481 -0 0 -2 0.015 0 0 0 0.0353429 
225 1 0.0772421 0.22912 2.28296 -0 0 -2 0.015 0 0 0 0.0353429 
271 1 0.0988759 0.311205 2.28976 -0 0 -2 0.015 0 0 0 0.0353429 
274 1 0.108637 0.339608 2.2891 -0 0 -2 0.015 0 0 0 0.0353429 
183 1 0.0737852 0.400871 2.29343 -0 0 -2 0.025 0 0 0 0.163625 
283 1 0.102888 0.442022 2.27945 -0 0 -2 0.015 0 0 0 0.0353429 
173 1 0.0548933 0.463589 2.28284 -0 0 -2 0.025 0 0 0 0.163625 
196 1 0.0520917 0.20732 2.31078 -0 0 -2 0.025 0 0 0 0.163625 
163 1 0.107222 0.236676 2.31643 -0 0 -2 0.025 0 0 0 0.163625 
155 1 0.141768 0.302505 2.31715 -0 0 -2 0.025 0 0 0 0.163625 
268 1 0.140569 0.388665 2.32604 -0 0 -2 0.015 0 0 0 0.0353429 
281 1 0.0312292 0.432852 2.30663 -0 0 -2 0.015 0 0 0 0.0353429 
188 1 0.140755 0.442261 2.31241 -0 0 -2 0.025 0 0 0 0.163625 
280 1 0.0367193 0.456786 2.32777 -0 0 -2 0.015 0 0 0 0.0353429 
267 1 0.101401 0.464343 2.32538 -0 0 -2 0.015 0 0 0 0.0353429 
218 1 0.0164873 0.217058 2.35237 -0 0 -2 0.015 0 0 0 0.0353429 
298 1 0.114914 0.351461 2.34445 -0 0 -2 0.015 0 0 0 0.0353429 
197 1 0.0581936 0.42558 2.34416 -0 0 -2 0.025 0 0 0 0.163625 
273 1 0.0779061 0.461373 2.34584 -0 0 -2 0.015 0 0 0 0.0353429 
164 1 0.0527853 0.200711 2.38868 -0 0 -2 0.025 0 0 0 0.163625 
160 1 0.118533 0.219824 2.38238 -0 0 -2 0.025 0 0 0 0.163625 
215 1 0.0767991 0.264474 2.39177 -0 0 -2 0.015 0 0 0 0.0353429 
297 1 0.141884 0.27502 2.38954 -0 0 -2 0.015 0 0 0 0.0353429 
238 1 0.105443 0.363301 2.37241 -0 0 -2 0.015 0 0 0 0.0353429 
195 1 0.147227 0.360394 2.37852 -0 0 -2 0.025 0 0 0 0.163625 
292 1 0.0287531 0.422464 2.39168 -0 0 -2 0.015 0 0 0 0.0353429 
167 1 0.118751 0.462916 2.37672 -0 0 -2 0.025 0 0 0 0.163625 
261 1 0.0852607 0.230216 2.4069 -0 0 -2 0.015 0 0 0 0.0353429 
186 1 0.10183 0.291927 2.42408 -0 0 -2 0.025 0 0 0 0.163625 
243 1 0.113126 0.365244 2.4095 -0 0 -2 0.015 0 0 0 0.0353429 
193 1 0.102412 0.413293 2.40452 -0 0 -2 0.025 0 0 0 0.163625 
198 1 0.0617553 0.466461 2.40462 -0 0 -2 0.025 0 0 0 0.163625 
219 1 0.0278687 0.201322 2.43455 -0 0 -2 0.015 0 0 0 0.0353429 
239 1 0.126558 0.237343 2.43131 -0 0 -2 0.015 0 0 0 0.0353429 
266 1 0.0917737 0.36017 2.44111 -0 0 -2 0.015 0 0 0 0.0353429 
244 1 0.0497502 0.427977 2.42771 -0 0 -2 0.015 0 0 0 0.0353429 
