ITEM: TIMESTEP
88000
ITEM: NUMBER OF ATOMS
900
ITEM: BOX BOUNDS mm mm mm
-1 1
-1 1
-3.56734 2.85
ITEM: ATOMS id type x y z vx vy vz radius fx fy fz mass 
68 1 -0.0997213 -0.194729 -3.24829 0 -0.5 -10.5447 0.015 0 0 -0.346714 0.0353429 
137 1 -0.0933278 -0.137009 -3.22319 -0.00924354 -0.479856 -10.5218 0.015 0 0 -0.346714 0.0353429 
45 1 -0.0943793 -0.243762 -3.19381 0 -0.5 -10.4938 0.025 0 0 -1.60516 0.163625 
122 1 -0.0658701 -0.196192 -3.19254 0.00811842 -0.517403 -10.4922 0.015 0 0 -0.346714 0.0353429 
33 1 -0.129286 -0.00339531 -3.20546 0 -0.5 -10.5047 0.025 0 0 -1.60516 0.163625 
43 1 -0.116198 -0.0922146 -3.15337 0 -0.5 -10.456 0.025 0 0 -1.60516 0.163625 
111 1 -0.0487783 0.0401 -3.15222 0 -0.5 -10.4549 0.015 0 0 -0.346714 0.0353429 
119 1 -0.0370509 -0.254811 -3.13738 0 -0.5 -10.441 0.015 0 0 -0.346714 0.0353429 
78 1 -0.0422369 0.00395508 -3.12247 0 -0.5 -10.4269 0.015 0 0 -0.346714 0.0353429 
75 1 -0.0493142 -0.204328 -3.10414 0 -0.5 -10.4097 0.015 0 0 -0.346714 0.0353429 
89 1 -0.129145 -0.175692 -3.09185 0 -0.5 -10.3981 0.015 0 0 -0.346714 0.0353429 
220 1 -0.0170153 -0.268547 -3.06033 -0.0669262 -0.554313 -10.3644 0.015 0 0 -0.346714 0.0353429 
59 1 -0.0865612 -0.0471322 -3.06464 0 -0.5 -10.3724 0.015 0 0 -0.346714 0.0353429 
92 1 -0.131017 0.0473272 -3.03583 0 -0.5 -10.3451 0.015 0 0 -0.346714 0.0353429 
98 1 -0.147127 -0.103558 -2.92909 0 -0.5 -10.2434 0.015 0 0 -0.346714 0.0353429 
151 1 -0.0686397 -0.021473 -2.93021 0 -0.5 -10.2445 0.015 0 0 -0.346714 0.0353429 
8 1 -0.104188 -0.236537 -2.89678 0 -0.5 -10.2124 0.025 0 0 -1.60516 0.163625 
3 1 -0.141317 -0.0386121 -2.88197 0 -0.5 -10.1982 0.025 0 0 -1.60516 0.163625 
72 1 -0.105673 -0.001204 -2.85641 0 -0.5 -10.1735 0.015 0 0 -0.346714 0.0353429 
100 1 -0.0681017 -0.168079 -2.81953 0 -0.5 -10.1379 0.015 0 0 -0.346714 0.0353429 
140 1 -0.125739 -0.126444 -2.82877 0 -0.5 -10.1469 0.015 0 0 -0.346714 0.0353429 
40 1 -0.104474 0.0501982 -2.82664 0 -0.5 -10.1448 0.025 0 0 -1.60516 0.163625 
117 1 -0.0596227 -0.224979 -2.78129 0 -0.5 -10.1009 0.015 0 0 -0.346714 0.0353429 
118 1 -0.0372647 0.0336811 -2.80981 0 -0.5 -10.1285 0.015 0 0 -0.346714 0.0353429 
148 1 -0.246112 -0.043813 -2.78027 -0.171679 -0.397353 -10.1502 0.015 0 0 -0.346714 0.0353429 
51 1 -0.170414 -0.219491 -2.73171 -0.0265052 -0.519812 -10.0489 0.025 0 0 -1.60516 0.163625 
282 1 -0.114675 -0.2285 -2.71928 -0.2609 -0.673185 -10.0288 0.015 0 0 -0.346714 0.0353429 
90 1 -0.146535 0.0516669 -2.67267 0 -0.5 -9.99481 0.015 0 0 -0.346714 0.0353429 
60 1 -0.0770515 -0.216072 -2.63577 0 -0.5 -9.95851 0.015 0 0 -0.346714 0.0353429 
11 1 -0.0891727 -0.037606 -2.6542 0.022917 -0.457889 -9.98767 0.025 0 0 -1.60516 0.163625 
50 1 -0.130982 0.00835492 -2.63307 0 -0.5 -9.95586 0.025 0 0 -1.60516 0.163625 
74 1 -0.0790012 -0.00410664 -2.57222 0 -0.5 -9.89573 0.015 0 0 -0.346714 0.0353429 
105 1 -0.33719 -0.00550662 -2.55408 -0.321192 -0.368687 -9.87138 0.015 0 0 -0.346714 0.0353429 
76 1 -0.0202065 0.02407 -2.54446 0 -0.5 -9.86816 0.015 0 0 -0.346714 0.0353429 
44 1 -0.125916 -0.224403 -2.52593 0 -0.5 -9.84972 0.025 0 0 -1.60516 0.163625 
36 1 -0.103411 -0.177688 -2.48838 0 -0.5 -9.81224 0.025 0 0 -1.60516 0.163625 
29 1 -0.0788351 0.0381821 -2.49888 0 -0.5 -9.82274 0.025 0 0 -1.60516 0.163625 
54 1 -0.200961 -0.156082 -2.44523 -0.0956439 -0.529683 -9.76094 0.015 0 0 -0.346714 0.0353429 
114 1 -0.0722067 -0.147394 -2.42628 -0.00040144 -0.499666 -9.75003 0.015 0 0 -0.346714 0.0353429 
73 1 -0.0639552 -0.198233 -2.37316 0 -0.5 -9.69639 0.015 0 0 -0.346714 0.0353429 
2 1 -0.110349 -0.0509288 -2.36309 0 -0.5 -9.68618 0.025 0 0 -1.60516 0.163625 
113 1 -0.118506 0.0731977 -2.38433 0 -0.5 -9.70767 0.015 0 0 -0.346714 0.0353429 
146 1 -0.109965 -0.211084 -2.33379 0 -0.5 -9.65646 0.015 0 0 -0.346714 0.0353429 
12 1 -0.0363281 0.0583359 -2.33648 0 -0.5 -9.65921 0.025 0 0 -1.60516 0.163625 
88 1 -0.0666498 0.0159185 -2.30534 0 -0.5 -9.62752 0.015 0 0 -0.346714 0.0353429 
57 1 -0.120673 -0.0949395 -2.28602 0 -0.5 -9.6078 0.015 0 0 -0.346714 0.0353429 
10 1 -0.0472095 0.0648688 -2.27035 0.0635655 -0.375939 -9.64144 0.025 0 0 -1.60516 0.163625 
99 1 -0.146283 -0.146483 -2.26346 0 -0.5 -9.58475 0.015 0 0 -0.346714 0.0353429 
34 1 -0.138562 0.022511 -2.21127 0 -0.5 -9.53119 0.025 0 0 -1.60516 0.163625 
66 1 -0.0281121 -0.159177 -2.18719 0 -0.5 -9.50637 0.015 0 0 -0.346714 0.0353429 
19 1 -0.0715757 -0.136748 -2.19433 0 -0.5 -9.51372 0.025 0 0 -1.60516 0.163625 
83 1 -0.108229 -0.116854 -2.20108 0 -0.5 -9.52069 0.015 0 0 -0.346714 0.0353429 
81 1 -0.0129516 0.054779 -2.1575 0.07636 -0.438847 -9.45388 0.015 0 0 -0.346714 0.0353429 
71 1 -0.145263 0.0661975 -2.17227 0 -0.5 -9.49097 0.015 0 0 -0.346714 0.0353429 
67 1 -0.0183057 -0.203611 -2.14036 0 -0.5 -9.45791 0.015 0 0 -0.346714 0.0353429 
24 1 -0.138394 -0.176548 -2.1174 0 -0.5 -9.43407 0.025 0 0 -1.60516 0.163625 
133 1 -0.127566 -0.0600556 -2.10118 0 -0.5 -9.41719 0.015 0 0 -0.346714 0.0353429 
95 1 -0.10482 0.0273122 -2.0947 0 -0.5 -9.41042 0.015 0 0 -0.346714 0.0353429 
39 1 -0.0696793 0.07701 -2.09449 0 -0.5 -9.41023 0.025 0 0 -1.60516 0.163625 
103 1 -0.135939 -0.132278 -2.04888 0 -0.5 -9.36255 0.015 0 0 -0.346714 0.0353429 
70 1 -0.107191 -0.150076 -2.02617 0 -0.5 -9.33871 0.015 0 0 -0.346714 0.0353429 
143 1 -0.11631 0.0856819 -2.0327 0 -0.5 -9.34558 0.015 0 0 -0.346714 0.0353429 
97 1 -0.0338223 -0.146856 -1.99623 0 -0.5 -9.30722 0.015 0 0 -0.346714 0.0353429 
115 1 -0.076478 -0.111569 -1.99548 0 -0.5 -9.30644 0.015 0 0 -0.346714 0.0353429 
28 1 -0.0685748 -0.17393 -1.97949 0 -0.5 -9.28957 0.025 0 0 -1.60516 0.163625 
85 1 -0.13789 0.0100152 -1.99102 0 -0.5 -9.30173 0.015 0 0 -0.346714 0.0353429 
134 1 -0.137197 0.0503666 -1.96122 0 -0.5 -9.27024 0.015 0 0 -0.346714 0.0353429 
126 1 -0.132611 -0.0786081 -1.93127 -0.0288748 -0.539424 -9.22507 0.015 0 0 -0.346714 0.0353429 
77 1 -0.0297287 0.0787485 -1.94816 0 -0.5 -9.25641 0.015 0 0 -0.346714 0.0353429 
120 1 -0.148569 0.0992607 -1.94445 0 -0.5 -9.25248 0.015 0 0 -0.346714 0.0353429 
96 1 -0.131998 -0.146919 -1.91222 0 -0.5 -9.21825 0.015 0 0 -0.346714 0.0353429 
38 1 -0.121616 -0.105812 -1.8746 0 -0.5 -9.17812 0.025 0 0 -1.60516 0.163625 
130 1 -0.0642546 -0.111559 -1.80449 0 -0.5 -9.10288 0.015 0 0 -0.346714 0.0353429 
23 1 -0.134189 0.030519 -1.80613 0 -0.5 -9.10465 0.025 0 0 -1.60516 0.163625 
150 1 -0.100106 -0.134793 -1.76354 0 -0.5 -9.05864 0.015 0 0 -0.346714 0.0353429 
18 1 -0.106015 0.095686 -1.76128 0 -0.5 -9.05619 0.025 0 0 -1.60516 0.163625 
4 1 -0.0330873 0.108857 -1.76272 0 -0.5 -9.05776 0.025 0 0 -1.60516 0.163625 
106 1 -0.171435 0.284703 -1.76288 -0.0998962 -0.230395 -9.13873 0.015 0 0 -0.346714 0.0353429 
31 1 -0.140814 -0.169123 -1.73713 0 -0.5 -9.02999 0.025 0 0 -1.60516 0.163625 
110 1 -0.0868918 -0.179583 -1.6895 0 -0.5 -8.9781 0.015 0 0 -0.346714 0.0353429 
93 1 -0.0244706 -0.167842 -1.66538 0 -0.5 -8.95171 0.015 0 0 -0.346714 0.0353429 
136 1 -0.0832352 0.0390076 -1.65912 0 -0.5 -8.94484 0.015 0 0 -0.346714 0.0353429 
17 1 -0.134634 -0.0539735 -1.65322 0 -0.5 -8.93837 0.025 0 0 -1.60516 0.163625 
30 1 -0.0481876 0.0668572 -1.64508 0 -0.5 -8.92944 0.025 0 0 -1.60516 0.163625 
109 1 -0.0676248 0.11408 -1.64697 0 -0.5 -8.9315 0.015 0 0 -0.346714 0.0353429 
1 1 -0.156623 0.407377 -1.62712 -0.021394 -0.0706631 -9.00369 0.025 0 0 -1.60516 0.163625 
108 1 -0.089121 -0.147176 -1.57175 0 -0.5 -8.84851 0.015 0 0 -0.346714 0.0353429 
69 1 -0.020474 -0.126917 -1.53248 0 -0.5 -8.80485 0.015 0 0 -0.346714 0.0353429 
35 1 -0.146938 0.046792 -1.52078 0 -0.5 -8.79181 0.025 0 0 -1.60516 0.163625 
22 1 -0.102489 -0.0216935 -1.47562 0 -0.5 -8.74128 0.025 0 0 -1.60516 0.163625 
102 1 -0.11709 -0.147101 -1.46644 0 -0.5 -8.73098 0.015 0 0 -0.346714 0.0353429 
14 1 -0.0571303 -0.155025 -1.44753 0 -0.5 -8.7097 0.025 0 0 -1.60516 0.163625 
139 1 -0.104092 -0.089428 -1.46672 0 -0.5 -8.73128 0.015 0 0 -0.346714 0.0353429 
144 1 -0.0691235 -0.0865259 -1.46836 0 -0.5 -8.73314 0.015 0 0 -0.346714 0.0353429 
141 1 -0.136875 -0.0737358 -1.4217 0 -0.5 -8.68056 0.015 0 0 -0.346714 0.0353429 
55 1 -0.0960022 0.0844063 -1.43928 -7.52477e-06 -0.49998 -8.70041 0.015 0 0 -0.346714 0.0353429 
21 1 -0.0470047 0.1295 -1.39623 0 -0.5 -8.65172 0.025 0 0 -1.60516 0.163625 
94 1 -0.3517 0.159624 -1.39103 -0.356499 -0.190573 -8.68795 0.015 0 0 -0.346714 0.0353429 
87 1 -0.113676 0.0475876 -1.3704 0 -0.5 -8.62239 0.015 0 0 -0.346714 0.0353429 
107 1 -0.141609 -0.158052 -1.32423 0 -0.5 -8.56971 0.015 0 0 -0.346714 0.0353429 
147 1 -0.100309 0.117431 -1.29653 0 -0.5 -8.53792 0.015 0 0 -0.346714 0.0353429 
112 1 -0.073338 -0.0747213 -1.27853 0 -0.5 -8.51722 0.015 0 0 -0.346714 0.0353429 
84 1 -0.116406 0.00578632 -1.28458 0 -0.5 -8.52419 0.015 0 0 -0.346714 0.0353429 
142 1 -0.0724928 -0.133252 -1.24064 0 -0.5 -8.47347 0.015 0 0 -0.346714 0.0353429 
145 1 -0.0934491 0.0821128 -1.23691 0 -0.5 -8.46916 0.015 0 0 -0.346714 0.0353429 
47 1 -0.140465 0.0894497 -1.24047 0 -0.5 -8.47328 0.025 0 0 -1.60516 0.163625 
6 1 -0.0435049 -0.0652777 -1.20211 0.101461 -0.428163 -8.43265 0.025 0 0 -1.60516 0.163625 
80 1 -0.102893 0.0528925 -1.20918 0 -0.5 -8.43698 0.015 0 0 -0.346714 0.0353429 
32 1 -0.189439 -0.166042 -1.1533 -0.0613285 -0.540948 -8.36971 0.025 0 0 -1.60516 0.163625 
135 1 -0.140472 -0.0651074 -1.15833 0 -0.5 -8.37763 0.015 0 0 -0.346714 0.0353429 
62 1 -0.0849655 0.142406 -1.15882 0 -0.5 -8.37822 0.015 0 0 -0.346714 0.0353429 
280 1 -0.165369 0.430246 -1.15771 -0.323138 -0.0374805 -8.4403 0.015 0 0 -0.346714 0.0353429 
138 1 -0.0317395 -0.130684 -1.1249 0 -0.5 -8.33839 0.015 0 0 -0.346714 0.0353429 
128 1 -0.145291 0.0196768 -1.12198 0 -0.5 -8.33495 0.015 0 0 -0.346714 0.0353429 
15 1 -0.0650315 0.0495589 -1.13308 0.0430154 -0.390763 -8.32545 0.025 0 0 -1.60516 0.163625 
121 1 -0.0679495 0.124078 -1.08664 0 -0.5 -8.29326 0.015 0 0 -0.346714 0.0353429 
129 1 -0.0553418 -0.106801 -1.0216 0 -0.5 -8.21596 0.015 0 0 -0.346714 0.0353429 
13 1 -0.146779 -0.0241789 -0.995673 0 -0.5 -8.18496 0.025 0 0 -1.60516 0.163625 
101 1 -0.102489 -0.0141755 -1.00289 0 -0.5 -8.19359 0.015 0 0 -0.346714 0.0353429 
37 1 -0.0716655 0.0886653 -1.00388 0 -0.5 -8.19477 0.025 0 0 -1.60516 0.163625 
46 1 -0.032303 0.150569 -0.994614 0 -0.5 -8.18368 0.025 0 0 -1.60516 0.163625 
61 1 -0.0231802 -0.137065 -0.975574 0 -0.5 -8.16083 0.015 0 0 -0.346714 0.0353429 
52 1 -0.100497 -0.12151 -0.96091 0 -0.5 -8.14317 0.015 0 0 -0.346714 0.0353429 
79 1 -0.0179342 -0.103016 -0.975418 0 -0.5 -8.16063 0.015 0 0 -0.346714 0.0353429 
91 1 -0.124131 0.082132 -0.974601 0 -0.5 -8.15965 0.015 0 0 -0.346714 0.0353429 
5 1 -0.137704 -0.0935882 -0.941871 0 -0.5 -8.12021 0.025 0 0 -1.60516 0.163625 
7 1 -0.0712578 -0.0545506 -0.935946 0 -0.5 -8.11305 0.025 0 0 -1.60516 0.163625 
20 1 -0.124339 0.0338877 -0.947796 0 -0.5 -8.12738 0.025 0 0 -1.60516 0.163625 
86 1 -0.142939 0.0750587 -0.873451 0 -0.5 -8.03712 0.015 0 0 -0.346714 0.0353429 
9 1 -0.0320364 0.109159 -0.867339 0 -0.5 -8.02967 0.025 0 0 -1.60516 0.163625 
58 1 -0.0969698 -0.0201093 -0.842502 0 -0.5 -7.99926 0.015 0 0 -0.346714 0.0353429 
124 1 -0.136447 0.105377 -0.842734 0 -0.5 -7.99955 0.015 0 0 -0.346714 0.0353429 
65 1 -0.147981 -0.116903 -0.817993 0 -0.5 -7.96914 0.015 0 0 -0.346714 0.0353429 
41 1 -0.107908 0.160758 -0.822607 0 -0.5 -7.97483 0.025 0 0 -1.60516 0.163625 
104 1 -0.138444 0.0472171 -0.751318 0 -0.5 -7.88664 0.015 0 0 -0.346714 0.0353429 
131 1 -0.025873 0.14804 -0.768379 0 -0.5 -7.90783 0.015 0 0 -0.346714 0.0353429 
132 1 -0.0234712 -0.0838319 -0.717876 0 -0.5 -7.84495 0.015 0 0 -0.346714 0.0353429 
48 1 -0.144727 -0.026148 -0.7193 0 -0.5 -7.84671 0.025 0 0 -1.60516 0.163625 
53 1 -0.106432 0.0183403 -0.715523 0 -0.5 -7.842 0.015 0 0 -0.346714 0.0353429 
49 1 -0.0613084 -0.10629 -0.682686 0 -0.5 -7.8008 0.025 0 0 -1.60516 0.163625 
82 1 -0.0851821 0.107627 -0.665849 0 -0.5 -7.77961 0.015 0 0 -0.346714 0.0353429 
16 1 -0.129915 0.117079 -0.677138 0 -0.5 -7.79384 0.025 0 0 -1.60516 0.163625 
27 1 -0.0637137 0.143885 -0.675979 0 -0.5 -7.79236 0.025 0 0 -1.60516 0.163625 
63 1 -0.147823 0.173713 -0.649237 0 -0.5 -7.75862 0.015 0 0 -0.346714 0.0353429 
25 1 -0.104447 -0.0722147 -0.598077 0 -0.5 -7.69367 0.025 0 0 -1.60516 0.163625 
127 1 -0.0304133 -0.0603788 -0.618196 0 -0.5 -7.71928 0.015 0 0 -0.346714 0.0353429 
56 1 -0.11556 0.171119 -0.618435 0 -0.5 -7.71957 0.015 0 0 -0.346714 0.0353429 
42 1 -0.132916 0.0207956 -0.572445 0 -0.5 -7.66091 0.025 0 0 -1.60516 0.163625 
123 1 -0.11925 0.0774922 -0.565939 0 -0.5 -7.65257 0.015 0 0 -0.346714 0.0353429 
64 1 -0.145219 0.141177 -0.541273 0 -0.5 -7.62088 0.015 0 0 -0.346714 0.0353429 
125 1 -0.0960051 0.133127 -0.537979 0 -0.5 -7.61667 0.015 0 0 -0.346714 0.0353429 
392 1 -0.0201822 -0.108623 -0.511687 0 -0.5 -7.58272 0.015 0 0 -0.346714 0.0353429 
361 1 -0.0655065 -0.0808406 -0.516093 0 -0.5 -7.58841 0.015 0 0 -0.346714 0.0353429 
391 1 -0.0665259 0.11819 -0.513671 0 -0.5 -7.58527 0.015 0 0 -0.346714 0.0353429 
375 1 -0.132504 -0.0437871 -0.499424 0 -0.5 -7.56683 0.015 0 0 -0.346714 0.0353429 
353 1 -0.0778865 -0.0274899 -0.46563 0 -0.5 -7.52288 0.015 0 0 -0.346714 0.0353429 
432 1 -0.110656 0.0320228 -0.44408 0 -0.5 -7.49473 0.015 0 0 -0.346714 0.0353429 
423 1 -0.035066 0.136352 -0.446993 0 -0.5 -7.49855 0.015 0 0 -0.346714 0.0353429 
370 1 -0.0476722 0.190061 -0.465686 0 -0.5 -7.52298 0.015 0 0 -0.346714 0.0353429 
449 1 -0.121601 -0.10303 -0.424765 0 -0.5 -7.46942 0.015 0 0 -0.346714 0.0353429 
348 1 -0.0517275 -0.0963788 -0.392923 -0.0150753 -0.514502 -7.42527 0.025 0 0 -1.60516 0.163625 
409 1 -0.1116 0.00427932 -0.381838 0 -0.5 -7.41281 0.015 0 0 -0.346714 0.0353429 
434 1 -0.110177 0.164235 -0.385613 0 -0.5 -7.41782 0.015 0 0 -0.346714 0.0353429 
304 1 -0.147639 0.130299 -0.339889 0 -0.5 -7.35709 0.025 0 0 -1.60516 0.163625 
327 1 -0.047146 0.167396 -0.294963 0 -0.5 -7.29696 0.025 0 0 -1.60516 0.163625 
368 1 -0.0426125 -0.0578969 -0.258174 0 -0.5 -7.24732 0.015 0 0 -0.346714 0.0353429 
414 1 -0.12165 0.0744124 -0.286374 0 -0.5 -7.28538 0.015 0 0 -0.346714 0.0353429 
416 1 -0.148865 0.0957519 -0.266441 0 -0.5 -7.2585 0.015 0 0 -0.346714 0.0353429 
422 1 -0.0856494 0.158628 -0.261064 0 -0.5 -7.25124 0.015 0 0 -0.346714 0.0353429 
328 1 -0.101567 -0.0326404 -0.232283 0 -0.5 -7.2122 0.025 0 0 -1.60516 0.163625 
342 1 -0.0942786 0.118007 -0.230349 0 -0.5 -7.20955 0.025 0 0 -1.60516 0.163625 
307 1 -0.141488 -0.0636836 -0.213928 0 -0.5 -7.18718 0.025 0 0 -1.60516 0.163625 
441 1 -0.0895132 0.196957 -0.213289 0 -0.5 -7.1863 0.015 0 0 -0.346714 0.0353429 
440 1 -0.074831 -0.0813668 -0.19256 0 -0.5 -7.15795 0.015 0 0 -0.346714 0.0353429 
352 1 -0.144025 0.155939 -0.175255 0 -0.5 -7.13421 0.015 0 0 -0.346714 0.0353429 
330 1 -0.125578 0.212028 -0.168206 0 -0.5 -7.1245 0.025 0 0 -1.60516 0.163625 
388 1 -0.0545692 -0.0173145 -0.14766 0 -0.5 -7.09615 0.015 0 0 -0.346714 0.0353429 
323 1 -0.131477 0.0518135 -0.150843 0 -0.5 -7.10056 0.025 0 0 -1.60516 0.163625 
406 1 -0.0920408 0.155666 -0.134332 0 -0.5 -7.07771 0.015 0 0 -0.346714 0.0353429 
331 1 -0.138106 -0.076169 -0.0489153 0 -0.5 -6.95832 0.025 0 0 -1.60516 0.163625 
418 1 -0.0554251 -0.0710597 -0.0703393 0 -0.5 -6.98843 0.015 0 0 -0.346714 0.0353429 
395 1 -0.110093 -0.0201279 -0.0590882 0 -0.5 -6.97264 0.015 0 0 -0.346714 0.0353429 
318 1 -0.126425 0.129158 -0.0741734 0 -0.5 -6.99383 0.025 0 0 -1.60516 0.163625 
336 1 -0.025747 0.162523 -0.060492 0 -0.5 -6.9746 0.025 0 0 -1.60516 0.163625 
313 1 -0.0392615 -0.0323105 -0.0273906 0 -0.5 -6.92791 0.025 0 0 -1.60516 0.163625 
374 1 -0.133879 0.189467 -0.0235951 0 -0.5 -6.92251 0.015 0 0 -0.346714 0.0353429 
315 1 -0.0970947 0.0344065 0.010755 0 -0.5 -6.87366 0.025 0 0 -1.60516 0.163625 
407 1 -0.0713596 0.162089 0.0131038 0 -0.5 -6.87032 0.015 0 0 -0.346714 0.0353429 
310 1 -0.0919271 0.199993 0.006016 0 -0.5 -6.88043 0.025 0 0 -1.60516 0.163625 
445 1 -0.0938501 0.104643 0.0361286 0 -0.5 -6.83736 0.015 0 0 -0.346714 0.0353429 
377 1 -0.128279 -0.0482797 0.0743375 0 -0.5 -6.78233 0.015 0 0 -0.346714 0.0353429 
386 1 -0.118095 0.17311 0.0678089 0 -0.5 -6.79174 0.015 0 0 -0.346714 0.0353429 
344 1 -0.147144 0.105445 0.100832 0 -0.5 -6.74387 0.025 0 0 -1.60516 0.163625 
302 1 -0.0567477 -0.0506837 0.131888 0 -0.5 -6.69855 0.025 0 0 -1.60516 0.163625 
401 1 -0.0913429 -0.0192196 0.128608 0 -0.5 -6.70336 0.015 0 0 -0.346714 0.0353429 
439 1 -0.132801 0.0678967 0.123641 0 -0.5 -6.71061 0.015 0 0 -0.346714 0.0353429 
314 1 -0.136534 0.0172362 0.146734 0 -0.5 -6.67677 0.025 0 0 -1.60516 0.163625 
431 1 -0.13363 -0.0223494 0.194027 0 -0.5 -6.60692 0.015 0 0 -0.346714 0.0353429 
355 1 -0.0483468 -0.00324149 0.18192 0 -0.5 -6.62488 0.015 0 0 -0.346714 0.0353429 
354 1 -0.0927402 0.165498 0.191385 0 -0.5 -6.61085 0.015 0 0 -0.346714 0.0353429 
413 1 -0.0512121 0.166816 0.1717 0 -0.5 -6.63998 0.015 0 0 -0.346714 0.0353429 
442 1 -0.149932 0.226171 0.173903 0 -0.5 -6.63675 0.015 0 0 -0.346714 0.0353429 
408 1 -0.087028 0.234439 0.188938 0 -0.5 -6.61448 0.015 0 0 -0.346714 0.0353429 
446 1 -0.116317 0.134626 0.229625 0 -0.5 -6.55385 0.015 0 0 -0.346714 0.0353429 
382 1 -0.0997856 0.268972 0.200504 0.026541 -0.439017 -6.65007 0.015 0 0 -0.346714 0.0353429 
427 1 -0.0738059 0.37159 0.224062 0.0988458 -0.172977 -6.6873 0.015 0 0 -0.346714 0.0353429 
411 1 -0.0485728 0.217056 0.242787 0 -0.5 -6.53413 0.015 0 0 -0.346714 0.0353429 
350 1 -0.147794 -0.0126051 0.318813 0 -0.5 -6.41896 0.025 0 0 -1.60516 0.163625 
399 1 -0.074527 4.80834e-05 0.299382 0 -0.5 -6.44859 0.015 0 0 -0.346714 0.0353429 
335 1 -0.126459 0.0484178 0.318442 0 -0.5 -6.41955 0.025 0 0 -1.60516 0.163625 
436 1 -0.0854574 0.0549506 0.298285 0 -0.5 -6.45026 0.015 0 0 -0.346714 0.0353429 
341 1 -0.148816 0.168228 0.302801 0 -0.5 -6.44339 0.025 0 0 -1.60516 0.163625 
389 1 -0.0230912 0.241676 0.304739 0 -0.5 -6.44045 0.015 0 0 -0.346714 0.0353429 
384 1 -0.202716 0.273219 0.31798 -0.135564 -0.440896 -6.43339 0.015 0 0 -0.346714 0.0353429 
324 1 -0.0498553 -0.0452968 0.335159 0 -0.5 -6.39395 0.025 0 0 -1.60516 0.163625 
437 1 -0.0723044 0.0312318 0.347738 0 -0.5 -6.37462 0.015 0 0 -0.346714 0.0353429 
385 1 -0.0696212 0.177365 0.329721 0 -0.5 -6.40229 0.015 0 0 -0.346714 0.0353429 
367 1 -0.106717 0.0118308 0.40652 0 -0.5 -6.28349 0.015 0 0 -0.346714 0.0353429 
394 1 -0.145405 0.206684 0.387505 0 -0.5 -6.31311 0.015 0 0 -0.346714 0.0353429 
426 1 -0.0179373 0.236964 0.405841 0 -0.5 -6.28457 0.015 0 0 -0.346714 0.0353429 
358 1 -0.127277 -0.0212076 0.430336 0 -0.5 -6.24621 0.015 0 0 -0.346714 0.0353429 
326 1 -0.145564 0.108454 0.433209 0 -0.5 -6.2417 0.025 0 0 -1.60516 0.163625 
424 1 -0.149086 0.261662 0.415946 -0.0730123 -0.390635 -6.27474 0.015 0 0 -0.346714 0.0353429 
319 1 -0.0687817 0.258025 0.425891 0 -0.5 -6.25317 0.025 0 0 -1.60516 0.163625 
376 1 -0.0824761 0.0237717 0.464356 0 -0.5 -6.19255 0.015 0 0 -0.346714 0.0353429 
433 1 -0.118613 -0.0353348 0.505558 0 -0.5 -6.12692 0.015 0 0 -0.346714 0.0353429 
420 1 -0.037203 -0.0271744 0.51157 0 -0.5 -6.11731 0.015 0 0 -0.346714 0.0353429 
402 1 -0.101682 0.00828704 0.517372 0 -0.5 -6.10799 0.015 0 0 -0.346714 0.0353429 
306 1 -0.116739 0.186034 0.515471 0 -0.5 -6.11103 0.025 0 0 -1.60516 0.163625 
412 1 -0.0937388 0.256584 0.524938 0 -0.5 -6.09582 0.015 0 0 -0.346714 0.0353429 
363 1 -0.0911777 0.0853271 0.55511 0 -0.5 -6.04707 0.015 0 0 -0.346714 0.0353429 
360 1 -0.116599 0.109221 0.552458 0 -0.5 -6.05138 0.015 0 0 -0.346714 0.0353429 
397 1 -0.0557758 0.197618 0.561267 0 -0.5 -6.03706 0.015 0 0 -0.346714 0.0353429 
371 1 -0.0449321 0.236104 0.549725 0 -0.5 -6.0558 0.015 0 0 -0.346714 0.0353429 
322 1 -0.131733 -0.0044363 0.604966 0 -0.5 -5.96564 0.025 0 0 -1.60516 0.163625 
373 1 -0.136858 0.142184 0.619619 0 -0.5 -5.94151 0.015 0 0 -0.346714 0.0353429 
396 1 -0.0958984 0.16266 0.608312 0 -0.5 -5.96015 0.015 0 0 -0.346714 0.0353429 
369 1 -0.138958 0.200563 0.624122 0 -0.5 -5.93406 0.015 0 0 -0.346714 0.0353429 
381 1 -0.0827007 0.231114 0.599539 0 -0.5 -5.97457 0.015 0 0 -0.346714 0.0353429 
383 1 -0.0262689 0.218803 0.625853 0 -0.5 -5.93121 0.015 0 0 -0.346714 0.0353429 
308 1 -0.0821689 0.00770465 0.66198 -0.0168546 -0.516386 -5.87001 0.025 0 0 -1.60516 0.163625 
438 1 -0.0987495 0.0943327 0.663546 0 -0.5 -5.86852 0.015 0 0 -0.346714 0.0353429 
356 1 -0.111476 0.137564 0.674847 0 -0.5 -5.84959 0.015 0 0 -0.346714 0.0353429 
340 1 -0.149237 0.265237 0.674033 0 -0.5 -5.85096 0.025 0 0 -1.60516 0.163625 
415 1 -0.127182 0.04613 0.696602 0 -0.5 -5.813 0.015 0 0 -0.346714 0.0353429 
343 1 -0.140775 0.104899 0.708042 0 -0.5 -5.79367 0.025 0 0 -1.60516 0.163625 
443 1 -0.0906469 0.192658 0.693337 0 -0.5 -5.81849 0.015 0 0 -0.346714 0.0353429 
349 1 -0.116564 0.224594 0.714463 0 -0.5 -5.78279 0.025 0 0 -1.60516 0.163625 
351 1 -0.0409452 0.223112 0.72197 0 -0.5 -5.77003 0.015 0 0 -0.346714 0.0353429 
390 1 -0.0988461 0.00658986 0.757149 0 -0.5 -5.7099 0.015 0 0 -0.346714 0.0353429 
539 1 -0.00372417 0.474788 0.7615 -0.32393 0.0458257 -5.80486 0.015 0 0 -0.346714 0.0353429 
448 1 -0.0329565 0.01557 0.793153 0 -0.5 -5.6477 0.015 0 0 -0.346714 0.0353429 
347 1 -0.0548177 0.05289 0.802517 0 -0.5 -5.63142 0.025 0 0 -1.60516 0.163625 
346 1 -0.1554 0.343997 0.799572 -0.0151472 -0.325165 -5.66758 0.025 0 0 -1.60516 0.163625 
362 1 -0.0154426 0.0476087 0.838296 0 -0.5 -5.56873 0.015 0 0 -0.346714 0.0353429 
378 1 -0.121409 0.101198 0.813481 0 -0.5 -5.61229 0.015 0 0 -0.346714 0.0353429 
312 1 -0.134707 0.160718 0.815288 0 -0.5 -5.60915 0.025 0 0 -1.60516 0.163625 
359 1 -0.107325 0.205399 0.827371 0 -0.5 -5.58796 0.015 0 0 -0.346714 0.0353429 
303 1 -0.0551599 0.224479 0.838977 0 -0.5 -5.56755 0.025 0 0 -1.60516 0.163625 
417 1 -0.0160313 0.260054 0.815275 0 -0.5 -5.60915 0.015 0 0 -0.346714 0.0353429 
419 1 -0.111609 -0.00248116 0.842982 0 -0.5 -5.56049 0.015 0 0 -0.346714 0.0353429 
421 1 -0.0930175 0.0775422 0.866146 0 -0.5 -5.51948 0.015 0 0 -0.346714 0.0353429 
334 1 -0.103439 0.260448 0.856248 0 -0.5 -5.53704 0.025 0 0 -1.60516 0.163625 
325 1 -0.113596 0.113511 0.926061 0.0497405 -0.588401 -5.41776 0.025 0 0 -1.60516 0.163625 
320 1 -0.0648735 0.0369287 0.950341 0 -0.5 -5.36772 0.025 0 0 -1.60516 0.163625 
365 1 -0.154994 0.159796 0.940043 -0.198006 -0.434998 -5.30049 0.015 0 0 -0.346714 0.0353429 
372 1 -0.0702168 0.220237 0.959359 0 -0.5 -5.35124 0.015 0 0 -0.346714 0.0353429 
447 1 -0.122284 0.301789 0.951802 0 -0.5 -5.36508 0.015 0 0 -0.346714 0.0353429 
309 1 -0.144284 0.0360309 0.976117 0 -0.5 -5.32044 0.025 0 0 -1.60516 0.163625 
430 1 -0.123083 0.0833929 0.993549 0 -0.5 -5.28816 0.015 0 0 -0.346714 0.0353429 
387 1 -0.0901615 0.198452 0.981751 0 -0.5 -5.31004 0.015 0 0 -0.346714 0.0353429 
338 1 -0.0583644 0.289556 0.979296 0 -0.5 -5.31455 0.025 0 0 -1.60516 0.163625 
379 1 -0.0327871 0.0383292 1.02354 0 -0.5 -5.23225 0.015 0 0 -0.346714 0.0353429 
403 1 -0.0833248 0.089397 0.998688 0 -0.5 -5.27865 0.015 0 0 -0.346714 0.0353429 
393 1 -0.015571 0.260279 1.01731 0 -0.5 -5.24392 0.015 0 0 -0.346714 0.0353429 
316 1 -0.0983119 0.0221107 1.08148 0 -0.5 -5.12247 0.025 0 0 -1.60516 0.163625 
357 1 -0.0584785 0.0872145 1.0708 0 -0.5 -5.14288 0.015 0 0 -0.346714 0.0353429 
301 1 -0.0845827 0.25849 1.0839 0.012148 -0.512208 -5.11785 0.025 0 0 -1.60516 0.163625 
329 1 -0.127844 0.302126 1.07744 -0.0138001 -0.485947 -5.13026 0.025 0 0 -1.60516 0.163625 
364 1 -0.0453235 0.0528065 1.10234 0 -0.5 -5.08235 0.015 0 0 -0.346714 0.0353429 
321 1 -0.126579 0.0932512 1.10407 0 -0.5 -5.07902 0.025 0 0 -1.60516 0.163625 
410 1 -0.145474 0.142536 1.11188 0 -0.5 -5.06391 0.015 0 0 -0.346714 0.0353429 
333 1 -0.0978849 0.155337 1.10574 0 -0.5 -5.07578 0.025 0 0 -1.60516 0.163625 
380 1 -0.127355 0.197976 1.09399 0 -0.5 -5.09844 0.015 0 0 -0.346714 0.0353429 
428 1 -0.0387226 0.272002 1.09222 0 -0.5 -5.10187 0.015 0 0 -0.346714 0.0353429 
450 1 -0.0322061 0.316898 1.09435 0 -0.5 -5.09775 0.015 0 0 -0.346714 0.0353429 
337 1 -0.142368 0.238838 1.13086 0 -0.5 -5.02702 0.025 0 0 -1.60516 0.163625 
332 1 -0.0814262 0.084266 1.1986 0 -0.5 -4.89302 0.025 0 0 -1.60516 0.163625 
400 1 -0.135353 0.127905 1.20502 0 -0.5 -4.88017 0.015 0 0 -0.346714 0.0353429 
425 1 -0.074083 0.0307868 1.22358 0 -0.5 -4.84269 0.015 0 0 -0.346714 0.0353429 
317 1 -0.129905 0.170055 1.23614 0 -0.5 -4.81719 0.025 0 0 -1.60516 0.163625 
366 1 -0.144217 0.247022 1.23194 0 -0.5 -4.82572 0.015 0 0 -0.346714 0.0353429 
339 1 -0.0802774 0.29266 1.22266 0 -0.5 -4.84456 0.025 0 0 -1.60516 0.163625 
305 1 -0.0452536 0.329472 1.22358 0 -0.5 -4.84269 0.025 0 0 -1.60516 0.163625 
544 1 -0.0903751 0.436449 1.21115 -0.39021 -0.130746 -4.92613 0.015 0 0 -0.346714 0.0353429 
404 1 -0.119976 0.0518444 1.26187 0 -0.5 -4.76451 0.015 0 0 -0.346714 0.0353429 
311 1 -0.0354402 0.0463675 1.24219 0 -0.5 -4.80483 0.025 0 0 -1.60516 0.163625 
345 1 -0.128178 0.0946745 1.25585 0 -0.5 -4.77687 0.025 0 0 -1.60516 0.163625 
435 1 -0.0960728 0.131976 1.26264 0 -0.5 -4.76294 0.015 0 0 -0.346714 0.0353429 
405 1 -0.038992 0.28139 1.2419 0 -0.5 -4.80541 0.015 0 0 -0.346714 0.0353429 
675 1 -0.137993 0.314895 1.29958 -0.0349785 -0.349711 -4.75976 0.015 0 0 -0.346714 0.0353429 
444 1 -0.0159467 0.327826 1.29075 0 -0.5 -4.70467 0.015 0 0 -0.346714 0.0353429 
714 1 -0.0240605 0.096326 1.32539 0 -0.5 -4.63188 0.015 0 0 -0.346714 0.0353429 
690 1 -0.0634806 0.294565 1.33204 0 -0.5 -4.61775 0.015 0 0 -0.346714 0.0353429 
676 1 -0.132839 0.123867 1.3426 0 -0.5 -4.59528 0.015 0 0 -0.346714 0.0353429 
652 1 -0.0683105 0.128338 1.35861 0 -0.5 -4.56095 0.015 0 0 -0.346714 0.0353429 
634 1 -0.102181 0.316021 1.33431 0 -0.5 -4.61294 0.025 0 0 -1.60516 0.163625 
669 1 -0.0318411 0.305893 1.36236 0 -0.5 -4.55291 0.015 0 0 -0.346714 0.0353429 
629 1 -0.113195 0.175381 1.37136 0 -0.5 -4.53348 0.025 0 0 -1.60516 0.163625 
608 1 -0.0938106 0.0647933 1.40199 0 -0.5 -4.46668 0.025 0 0 -1.60516 0.163625 
682 1 -0.0469368 0.0607812 1.41068 0 -0.5 -4.44755 0.015 0 0 -0.346714 0.0353429 
657 1 -0.0480729 0.0989275 1.42032 0 -0.5 -4.42626 0.015 0 0 -0.346714 0.0353429 
606 1 -0.122405 0.249788 1.40606 0.00210743 -0.508228 -4.45381 0.025 0 0 -1.60516 0.163625 
708 1 -0.0786991 0.289401 1.404 0 -0.5 -4.46226 0.015 0 0 -0.346714 0.0353429 
660 1 -0.0183143 0.302377 1.42398 0 -0.5 -4.41812 0.015 0 0 -0.346714 0.0353429 
701 1 -0.0870486 0.347674 1.40761 0 -0.5 -4.45431 0.015 0 0 -0.346714 0.0353429 
735 1 -0.0832421 0.142669 1.43675 0 -0.5 -4.38967 0.015 0 0 -0.346714 0.0353429 
618 1 -0.13283 0.109164 1.48114 0 -0.5 -4.28931 0.025 0 0 -1.60516 0.163625 
709 1 -0.101732 0.191531 1.47242 0 -0.5 -4.30922 0.015 0 0 -0.346714 0.0353429 
750 1 -0.0862874 0.256179 1.48325 0 -0.5 -4.2845 0.015 0 0 -0.346714 0.0353429 
707 1 -0.0900659 0.0919886 1.49746 0 -0.5 -4.25184 0.015 0 0 -0.346714 0.0353429 
680 1 -0.0791761 0.146881 1.51161 0 -0.5 -4.21907 0.015 0 0 -0.346714 0.0353429 
649 1 -0.129761 0.225177 1.49866 0 -0.5 -4.24909 0.025 0 0 -1.60516 0.163625 
640 1 -0.0489559 0.111517 1.52275 0 -0.5 -4.19307 0.025 0 0 -1.60516 0.163625 
616 1 -0.140255 0.317264 1.5235 0 -0.5 -4.19131 0.025 0 0 -1.60516 0.163625 
725 1 -0.0732043 0.319614 1.54355 0 -0.5 -4.14412 0.015 0 0 -0.346714 0.0353429 
712 1 -0.0372677 0.36255 1.5343 0 -0.5 -4.166 0.015 0 0 -0.346714 0.0353429 
677 1 -0.113879 0.0823032 1.55331 0 -0.5 -4.12097 0.015 0 0 -0.346714 0.0353429 
744 1 -0.107021 0.268725 1.56972 0 -0.5 -4.08173 0.015 0 0 -0.346714 0.0353429 
736 1 -0.0864872 0.175793 1.59906 0 -0.5 -4.01061 0.015 0 0 -0.346714 0.0353429 
685 1 -0.0969629 0.315703 1.59007 0 -0.5 -4.03248 0.015 0 0 -0.346714 0.0353429 
610 1 -0.108705 0.115549 1.63788 0 -0.5 -3.91447 0.025 0 0 -1.60516 0.163625 
692 1 -0.0389882 0.13707 1.62443 0 -0.5 -3.94802 0.015 0 0 -0.346714 0.0353429 
625 1 -0.0709135 0.242063 1.61935 0.250947 -0.205125 -4.08389 0.025 0 0 -1.60516 0.163625 
722 1 -0.124711 0.314428 1.62451 0 -0.5 -3.94782 0.015 0 0 -0.346714 0.0353429 
620 1 -0.0294016 0.347755 1.6346 0 -0.5 -3.92271 0.025 0 0 -1.60516 0.163625 
674 1 -0.11657 0.371544 1.61921 0 -0.5 -3.96097 0.015 0 0 -0.346714 0.0353429 
699 1 -0.0856858 0.37342 1.6168 0 -0.5 -3.96695 0.015 0 0 -0.346714 0.0353429 
748 1 -0.0192599 0.104831 1.65614 0 -0.5 -3.86846 0.015 0 0 -0.346714 0.0353429 
636 1 -0.149776 0.290476 1.66972 0 -0.5 -3.83383 0.025 0 0 -1.60516 0.163625 
683 1 -0.0829948 0.316592 1.6427 0 -0.5 -3.9024 0.015 0 0 -0.346714 0.0353429 
732 1 -0.0691875 0.353647 1.64876 0 -0.5 -3.8871 0.015 0 0 -0.346714 0.0353429 
705 1 -0.0946775 0.0932794 1.6991 0 -0.5 -3.7579 0.015 0 0 -0.346714 0.0353429 
678 1 -0.0973357 0.245233 1.6803 0 -0.5 -3.80666 0.015 0 0 -0.346714 0.0353429 
696 1 -0.058387 0.319843 1.69353 0 -0.5 -3.77242 0.015 0 0 -0.346714 0.0353429 
730 1 -0.0250727 0.105246 1.73096 0 -0.5 -3.67383 0.015 0 0 -0.346714 0.0353429 
641 1 -0.146913 0.157242 1.70999 -0.0165282 -0.51578 -3.72211 0.025 0 0 -1.60516 0.163625 
694 1 -0.138308 0.257231 1.72137 0 -0.5 -3.69934 0.015 0 0 -0.346714 0.0353429 
733 1 -0.0833844 0.290272 1.72234 0 -0.5 -3.69679 0.015 0 0 -0.346714 0.0353429 
698 1 -0.111785 0.333616 1.71022 0 -0.5 -3.72877 0.015 0 0 -0.346714 0.0353429 
648 1 -0.130879 0.374847 1.702 0 -0.5 -3.75035 0.025 0 0 -1.60516 0.163625 
644 1 -0.140738 0.103303 1.74709 0 -0.5 -3.63047 0.025 0 0 -1.60516 0.163625 
637 1 -0.0618774 0.124817 1.73901 0 -0.5 -3.65225 0.025 0 0 -1.60516 0.163625 
729 1 -0.0894542 0.155908 1.74145 0 -0.5 -3.64568 0.015 0 0 -0.346714 0.0353429 
724 1 -0.0903421 0.193009 1.75712 0 -0.5 -3.6033 0.015 0 0 -0.346714 0.0353429 
745 1 -0.0772045 0.256049 1.75103 0.249023 -0.340208 -3.70862 0.015 0 0 -0.346714 0.0353429 
639 1 -0.0576645 0.459082 1.73564 0.113569 0.037071 -3.72028 0.025 0 0 -1.60516 0.163625 
628 1 -0.0921594 0.304743 1.77608 -0.035052 -0.643145 -3.53415 0.025 0 0 -1.60516 0.163625 
679 1 -0.13837 0.108158 1.82182 0 -0.5 -3.4226 0.015 0 0 -0.346714 0.0353429 
684 1 -0.0877228 0.138489 1.79658 0 -0.5 -3.49421 0.015 0 0 -0.346714 0.0353429 
627 1 -0.145257 0.215442 1.80644 -0.00145318 -0.500708 -3.46594 0.025 0 0 -1.60516 0.163625 
603 1 -0.121744 0.272127 1.81475 0 -0.5 -3.44281 0.025 0 0 -1.60516 0.163625 