ITEM: TIMESTEP
26400
ITEM: NUMBER OF ATOMS
300
ITEM: BOX BOUNDS mm mm mm
-1 1
-1 1
-0.05 2.85
ITEM: ATOMS id type x y z vx vy vz radius fx fy fz mass 
45 1 -0.0943793 0.0642376 1.40917 0 -0.5 -4.45088 0.025 0 0 -1.60516 0.163625 
68 1 -0.0997213 0.113271 1.38598 0 -0.5 -4.5017 0.015 0 0 -0.346714 0.0353429 
122 1 -0.0708711 0.122528 1.40943 0.00811842 -0.517403 -4.44926 0.015 0 0 -0.346714 0.0353429 
137 1 -0.0876338 0.158582 1.39701 -0.00924354 -0.479856 -4.47884 0.015 0 0 -0.346714 0.0353429 
33 1 -0.129286 0.304605 1.40422 0 -0.5 -4.46177 0.025 0 0 -1.60516 0.163625 
119 1 -0.0370509 0.0531886 1.43303 0 -0.5 -4.39801 0.015 0 0 -0.346714 0.0353429 
43 1 -0.116198 0.215785 1.42628 0 -0.5 -4.41301 0.025 0 0 -1.60516 0.163625 
78 1 -0.0422369 0.311955 1.43929 0 -0.5 -4.38398 0.015 0 0 -0.346714 0.0353429 
111 1 -0.0487783 0.3481 1.42676 0 -0.5 -4.41194 0.015 0 0 -0.346714 0.0353429 
75 1 -0.0493142 0.103672 1.44699 0 -0.5 -4.36671 0.015 0 0 -0.346714 0.0353429 
89 1 -0.129145 0.132308 1.45215 0 -0.5 -4.35514 0.015 0 0 -0.346714 0.0353429 
116 1 -0.0136385 0.191301 1.46746 0.36535 -0.287166 -4.43992 0.015 0 0 -0.346714 0.0353429 
59 1 -0.0865612 0.260868 1.46352 0 -0.5 -4.32943 0.015 0 0 -0.346714 0.0353429 
92 1 -0.131017 0.355327 1.47553 0 -0.5 -4.30216 0.015 0 0 -0.346714 0.0353429 
8 1 -0.104188 0.071463 1.53282 0 -0.5 -4.16943 0.025 0 0 -1.60516 0.163625 
26 1 -0.0829684 0.164956 1.51567 0.14857 -0.341553 -4.27121 0.025 0 0 -1.60516 0.163625 
98 1 -0.147127 0.204442 1.5196 0 -0.5 -4.20043 0.015 0 0 -0.346714 0.0353429 
151 1 -0.0686397 0.286527 1.51915 0 -0.5 -4.20151 0.015 0 0 -0.346714 0.0353429 
100 1 -0.0681017 0.139921 1.5642 0 -0.5 -4.09497 0.015 0 0 -0.346714 0.0353429 
140 1 -0.125739 0.181556 1.56047 0 -0.5 -4.1039 0.015 0 0 -0.346714 0.0353429 
3 1 -0.141317 0.269388 1.53887 0 -0.5 -4.15521 0.025 0 0 -1.60516 0.163625 
72 1 -0.105673 0.306796 1.54926 0 -0.5 -4.13058 0.015 0 0 -0.346714 0.0353429 
40 1 -0.104474 0.358198 1.56132 0 -0.5 -4.10184 0.025 0 0 -1.60516 0.163625 
117 1 -0.0596227 0.0830208 1.5796 0 -0.5 -4.05789 0.015 0 0 -0.346714 0.0353429 
118 1 -0.0372647 0.341681 1.56813 0 -0.5 -4.08556 0.015 0 0 -0.346714 0.0353429 
51 1 -0.154086 0.100714 1.59721 -0.0265052 -0.519812 -4.00599 0.025 0 0 -1.60516 0.163625 
148 1 -0.140358 0.200956 1.61102 -0.171679 -0.397353 -4.10723 0.015 0 0 -0.346714 0.0353429 
90 1 -0.146535 0.359667 1.6229 0 -0.5 -3.95185 0.015 0 0 -0.346714 0.0353429 
60 1 -0.0770515 0.0919276 1.63744 0 -0.5 -3.91555 0.015 0 0 -0.346714 0.0353429 
11 1 -0.10329 0.244453 1.63698 0.022917 -0.457889 -3.94471 0.025 0 0 -1.60516 0.163625 
50 1 -0.130982 0.316355 1.6385 0 -0.5 -3.9129 0.025 0 0 -1.60516 0.163625 
44 1 -0.125916 0.0835965 1.68026 0 -0.5 -3.80676 0.025 0 0 -1.60516 0.163625 
105 1 -0.139336 0.221605 1.66545 -0.321192 -0.368687 -3.82842 0.015 0 0 -0.346714 0.0353429 
74 1 -0.0790012 0.303893 1.66232 0 -0.5 -3.85277 0.015 0 0 -0.346714 0.0353429 
76 1 -0.0202065 0.33207 1.6731 0 -0.5 -3.8252 0.015 0 0 -0.346714 0.0353429 
36 1 -0.103411 0.130312 1.69473 0 -0.5 -3.76928 0.025 0 0 -1.60516 0.163625 
54 1 -0.142044 0.170202 1.70628 -0.0956439 -0.529683 -3.71798 0.015 0 0 -0.346714 0.0353429 
29 1 -0.0788351 0.346182 1.69069 0 -0.5 -3.77978 0.025 0 0 -1.60516 0.163625 
73 1 -0.0639552 0.109767 1.73858 0 -0.5 -3.65343 0.015 0 0 -0.346714 0.0353429 
114 1 -0.0719594 0.1604 1.71851 -0.00040144 -0.499666 -3.70707 0.015 0 0 -0.346714 0.0353429 
2 1 -0.110349 0.257071 1.74236 0 -0.5 -3.64322 0.025 0 0 -1.60516 0.163625 
113 1 -0.118506 0.381198 1.73436 0 -0.5 -3.66471 0.015 0 0 -0.346714 0.0353429 
146 1 -0.109965 0.0969163 1.75335 0 -0.5 -3.6135 0.015 0 0 -0.346714 0.0353429 
57 1 -0.120673 0.213061 1.77116 0 -0.5 -3.56484 0.015 0 0 -0.346714 0.0353429 
88 1 -0.0666498 0.323919 1.76398 0 -0.5 -3.58456 0.015 0 0 -0.346714 0.0353429 
12 1 -0.0363281 0.366336 1.75236 0 -0.5 -3.61625 0.025 0 0 -1.60516 0.163625 
66 1 -0.0281121 0.148823 1.8075 0 -0.5 -3.46341 0.015 0 0 -0.346714 0.0353429 
99 1 -0.146283 0.161517 1.77952 0 -0.5 -3.54179 0.015 0 0 -0.346714 0.0353429 
19 1 -0.0715757 0.171252 1.80489 0 -0.5 -3.47076 0.025 0 0 -1.60516 0.163625 
83 1 -0.108229 0.191146 1.80243 0 -0.5 -3.47773 0.015 0 0 -0.346714 0.0353429 
10 1 -0.0882244 0.294959 1.80643 0.0800593 -0.36273 -3.58867 0.025 0 0 -1.60516 0.163625 
34 1 -0.138562 0.330511 1.79871 0 -0.5 -3.48823 0.025 0 0 -1.60516 0.163625 
67 1 -0.0183057 0.104389 1.82448 0 -0.5 -3.41495 0.015 0 0 -0.346714 0.0353429 
24 1 -0.138394 0.131452 1.83276 0 -0.5 -3.39111 0.025 0 0 -1.60516 0.163625 
133 1 -0.127566 0.247944 1.83858 0 -0.5 -3.37423 0.015 0 0 -0.346714 0.0353429 
81 1 -0.051385 0.331999 1.80998 0 -0.5 -3.45634 0.015 0 0 -0.346714 0.0353429 
71 1 -0.145263 0.374198 1.81293 0 -0.5 -3.44801 0.015 0 0 -0.346714 0.0353429 
103 1 -0.135939 0.175722 1.85722 0 -0.5 -3.31959 0.015 0 0 -0.346714 0.0353429 
70 1 -0.107191 0.157924 1.86525 0 -0.5 -3.29575 0.015 0 0 -0.346714 0.0353429 
95 1 -0.10482 0.335312 1.84089 0 -0.5 -3.36746 0.015 0 0 -0.346714 0.0353429 
39 1 -0.0696793 0.38501 1.84097 0 -0.5 -3.36727 0.025 0 0 -1.60516 0.163625 
143 1 -0.11631 0.393682 1.86295 0 -0.5 -3.30262 0.015 0 0 -0.346714 0.0353429 
28 1 -0.0685748 0.13407 1.88165 0 -0.5 -3.24661 0.025 0 0 -1.60516 0.163625 
97 1 -0.0338223 0.161144 1.87579 0 -0.5 -3.26426 0.015 0 0 -0.346714 0.0353429 
115 1 -0.076478 0.196431 1.87605 0 -0.5 -3.26348 0.015 0 0 -0.346714 0.0353429 
126 1 -0.114824 0.253677 1.89014 -0.0288748 -0.539424 -3.18211 0.015 0 0 -0.346714 0.0353429 
85 1 -0.13789 0.318015 1.87761 0 -0.5 -3.25877 0.015 0 0 -0.346714 0.0353429 
134 1 -0.137197 0.358367 1.88801 0 -0.5 -3.22728 0.015 0 0 -0.346714 0.0353429 
77 1 -0.0297287 0.386749 1.89255 0 -0.5 -3.21345 0.015 0 0 -0.346714 0.0353429 
120 1 -0.148569 0.407261 1.89385 0 -0.5 -3.20952 0.015 0 0 -0.346714 0.0353429 
96 1 -0.131998 0.161081 1.90499 0 -0.5 -3.17529 0.015 0 0 -0.346714 0.0353429 
38 1 -0.121616 0.202188 1.91789 0 -0.5 -3.13516 0.025 0 0 -1.60516 0.163625 
150 1 -0.100106 0.173207 1.95535 0 -0.5 -3.01568 0.015 0 0 -0.346714 0.0353429 
130 1 -0.0642546 0.196441 1.94165 0 -0.5 -3.05992 0.015 0 0 -0.346714 0.0353429 
23 1 -0.134189 0.338519 1.9411 0 -0.5 -3.06169 0.025 0 0 -1.60516 0.163625 
18 1 -0.106015 0.403686 1.9561 0 -0.5 -3.01323 0.025 0 0 -1.60516 0.163625 
4 1 -0.0330873 0.416857 1.95563 0 -0.5 -3.0148 0.025 0 0 -1.60516 0.163625 
31 1 -0.140814 0.138877 1.96411 0 -0.5 -2.98703 0.025 0 0 -1.60516 0.163625 
110 1 -0.0868918 0.128417 1.97978 0 -0.5 -2.93514 0.015 0 0 -0.346714 0.0353429 
93 1 -0.0244706 0.140158 1.98764 0 -0.5 -2.90875 0.015 0 0 -0.346714 0.0353429 
17 1 -0.134634 0.254027 1.99158 0 -0.5 -2.89541 0.025 0 0 -1.60516 0.163625 
136 1 -0.0832352 0.347008 1.98968 0 -0.5 -2.90188 0.015 0 0 -0.346714 0.0353429 
108 1 -0.089121 0.160824 2.0177 0 -0.5 -2.80555 0.015 0 0 -0.346714 0.0353429 
30 1 -0.0481876 0.374857 1.99422 0 -0.5 -2.88648 0.025 0 0 -1.60516 0.163625 
109 1 -0.0676248 0.42208 1.9936 0 -0.5 -2.88854 0.015 0 0 -0.346714 0.0353429 
106 1 -0.109899 0.426626 2.00535 -0.0998962 -0.230395 -3.09577 0.015 0 0 -0.346714 0.0353429 
102 1 -0.11709 0.160899 2.05061 0 -0.5 -2.68802 0.015 0 0 -0.346714 0.0353429 
69 1 -0.020474 0.181083 2.03008 0 -0.5 -2.76189 0.015 0 0 -0.346714 0.0353429 
139 1 -0.104092 0.218572 2.05052 0 -0.5 -2.68832 0.015 0 0 -0.346714 0.0353429 
144 1 -0.0691235 0.221474 2.05002 0 -0.5 -2.69018 0.015 0 0 -0.346714 0.0353429 
22 1 -0.102489 0.286306 2.04778 0 -0.5 -2.69832 0.025 0 0 -1.60516 0.163625 
35 1 -0.146938 0.354792 2.03374 0 -0.5 -2.74885 0.025 0 0 -1.60516 0.163625 
14 1 -0.0571303 0.152975 2.05641 0 -0.5 -2.66674 0.025 0 0 -1.60516 0.163625 
141 1 -0.136875 0.234264 2.06429 0 -0.5 -2.6376 0.015 0 0 -0.346714 0.0353429 
87 1 -0.113676 0.355588 2.07976 0 -0.5 -2.57943 0.015 0 0 -0.346714 0.0353429 
55 1 -0.0959976 0.392394 2.05894 -7.52477e-06 -0.49998 -2.65745 0.015 0 0 -0.346714 0.0353429 
1 1 -0.143445 0.450906 2.05792 -0.021394 -0.0706631 -2.96073 0.025 0 0 -1.60516 0.163625 
21 1 -0.0470047 0.4375 2.07199 0 -0.5 -2.60876 0.025 0 0 -1.60516 0.163625 
107 1 -0.141609 0.149948 2.09347 0 -0.5 -2.52675 0.015 0 0 -0.346714 0.0353429 
112 1 -0.073338 0.233279 2.10684 0 -0.5 -2.47426 0.015 0 0 -0.346714 0.0353429 
149 1 -0.101959 0.261298 2.10842 0.199959 -0.45766 -2.89549 0.015 0 0 -0.346714 0.0353429 
94 1 -0.132097 0.277017 2.09952 -0.356499 -0.190573 -2.64499 0.015 0 0 -0.346714 0.0353429 
84 1 -0.116406 0.313786 2.10509 0 -0.5 -2.48123 0.015 0 0 -0.346714 0.0353429 
147 1 -0.100309 0.425431 2.1016 0 -0.5 -2.49496 0.015 0 0 -0.346714 0.0353429 
32 1 -0.151661 0.167182 2.14121 -0.0613285 -0.540948 -2.32675 0.025 0 0 -1.60516 0.163625 
142 1 -0.0724928 0.174748 2.11778 0 -0.5 -2.43051 0.015 0 0 -0.346714 0.0353429 
6 1 -0.106005 0.198471 2.13118 0.101461 -0.428163 -2.38969 0.025 0 0 -1.60516 0.163625 
135 1 -0.140472 0.242893 2.14105 0 -0.5 -2.33467 0.015 0 0 -0.346714 0.0353429 
15 1 -0.091529 0.290269 2.13417 0.0430154 -0.390763 -2.28249 0.025 0 0 -1.60516 0.163625 
80 1 -0.102893 0.360893 2.12677 0 -0.5 -2.39402 0.015 0 0 -0.346714 0.0353429 
145 1 -0.0934491 0.390113 2.11886 0 -0.5 -2.4262 0.015 0 0 -0.346714 0.0353429 
47 1 -0.140465 0.39745 2.11783 0 -0.5 -2.43032 0.025 0 0 -1.60516 0.163625 
62 1 -0.0849655 0.450406 2.14093 0 -0.5 -2.33526 0.015 0 0 -0.346714 0.0353429 
138 1 -0.0317395 0.177316 2.15031 0 -0.5 -2.29543 0.015 0 0 -0.346714 0.0353429 
128 1 -0.145291 0.327677 2.15112 0 -0.5 -2.29199 0.015 0 0 -0.346714 0.0353429 
121 1 -0.0679495 0.432078 2.16078 0 -0.5 -2.2503 0.015 0 0 -0.346714 0.0353429 
61 1 -0.0231802 0.170935 2.19026 0 -0.5 -2.11787 0.015 0 0 -0.346714 0.0353429 
52 1 -0.100497 0.18649 2.19405 0 -0.5 -2.10021 0.015 0 0 -0.346714 0.0353429 
129 1 -0.0553418 0.201199 2.1782 0 -0.5 -2.173 0.015 0 0 -0.346714 0.0353429 
79 1 -0.0179342 0.204984 2.1903 0 -0.5 -2.11767 0.015 0 0 -0.346714 0.0353429 
5 1 -0.137704 0.214412 2.19895 0 -0.5 -2.07725 0.025 0 0 -1.60516 0.163625 
7 1 -0.0712578 0.253449 2.20046 0 -0.5 -2.07009 0.025 0 0 -1.60516 0.163625 
13 1 -0.146779 0.283821 2.18503 0 -0.5 -2.142 0.025 0 0 -1.60516 0.163625 
101 1 -0.102489 0.293824 2.18313 0 -0.5 -2.15063 0.015 0 0 -0.346714 0.0353429 
20 1 -0.124339 0.341888 2.19744 0 -0.5 -2.08442 0.025 0 0 -1.60516 0.163625 
91 1 -0.124131 0.390132 2.19051 0 -0.5 -2.11669 0.015 0 0 -0.346714 0.0353429 
37 1 -0.0716655 0.396665 2.18287 0 -0.5 -2.15181 0.025 0 0 -1.60516 0.163625 
46 1 -0.032303 0.458569 2.1853 0 -0.5 -2.14072 0.025 0 0 -1.60516 0.163625 
65 1 -0.147981 0.187337 2.23004 -0 0 -2 0.015 0 0 0 0.0353429 
58 1 -0.0969698 0.285666 2.22391 -0 0 -2 0.015 0 0 0 0.0353429 
86 1 -0.142939 0.382764 2.21619 -0 0 -2 0.015 0 0 0 0.0353429 
124 1 -0.136447 0.411167 2.22385 -0 0 -2 0.015 0 0 0 0.0353429 
9 1 -0.0320364 0.416484 2.21771 -0 0 -2 0.025 0 0 0 0.163625 
41 1 -0.107908 0.465288 2.22889 -0 0 -2 0.025 0 0 0 0.163625 
49 1 -0.0613084 0.18937 2.26436 -0 0 -2 0.025 0 0 0 0.163625 
132 1 -0.0234712 0.214078 2.25538 -0 0 -2 0.015 0 0 0 0.0353429 
48 1 -0.144727 0.271852 2.25501 -0 0 -2 0.025 0 0 0 0.163625 
53 1 -0.106432 0.3161 2.25598 -0 0 -2 0.015 0 0 0 0.0353429 
104 1 -0.138444 0.347252 2.24686 -0 0 -2 0.015 0 0 0 0.0353429 
16 1 -0.129915 0.412384 2.2658 -0 0 -2 0.025 0 0 0 0.163625 
27 1 -0.0637137 0.439115 2.26609 -0 0 -2 0.025 0 0 0 0.163625 
131 1 -0.025873 0.449155 2.24254 -0 0 -2 0.015 0 0 0 0.0353429 
25 1 -0.104447 0.217985 2.28621 -0 0 -2 0.025 0 0 0 0.163625 
127 1 -0.0304133 0.231126 2.28099 -0 0 -2 0.015 0 0 0 0.0353429 
42 1 -0.132916 0.309326 2.29288 -0 0 -2 0.025 0 0 0 0.163625 
123 1 -0.11925 0.365597 2.29458 -0 0 -2 0.015 0 0 0 0.0353429 
82 1 -0.0851821 0.402207 2.26869 -0 0 -2 0.015 0 0 0 0.0353429 
63 1 -0.147823 0.467223 2.27296 -0 0 -2 0.015 0 0 0 0.0353429 
56 1 -0.11556 0.462639 2.28092 -0 0 -2 0.015 0 0 0 0.0353429 
125 1 -0.0960051 0.419402 2.30192 -0 0 -2 0.015 0 0 0 0.0353429 
64 1 -0.145219 0.427667 2.30104 -0 0 -2 0.015 0 0 0 0.0353429 
289 1 0.0970177 0.258549 1.29666 0.0203384 -0.134604 -4.87999 0.015 0 0 -0.346714 0.0353429 
284 1 0.0729653 0.0697254 1.38268 -0.0310215 -0.613333 -4.57471 0.015 0 0 -0.346714 0.0353429 
203 1 0.0667127 0.0512328 1.40708 0 -0.5 -4.45549 0.015 0 0 -0.346714 0.0353429 
206 1 0.0939629 0.0966487 1.41001 0.057048 -0.582454 -4.49917 0.015 0 0 -0.346714 0.0353429 
199 1 0.0901498 0.187436 1.41223 -0.00278668 -0.321029 -4.55165 0.025 0 0 -1.60516 0.163625 
213 1 0.0350777 0.29057 1.4072 0 -0.5 -4.4552 0.015 0 0 -0.346714 0.0353429 
272 1 0.0168276 0.325548 1.40312 0 -0.5 -4.46422 0.015 0 0 -0.346714 0.0353429 
263 1 0.025742 0.112494 1.43942 0 -0.5 -4.38368 0.015 0 0 -0.346714 0.0353429 
237 1 0.122002 0.114128 1.42394 0.0724848 -0.475593 -4.40417 0.015 0 0 -0.346714 0.0353429 
259 1 0.149131 0.0918265 1.42915 0 -0.5 -4.40664 0.015 0 0 -0.346714 0.0353429 
214 1 0.144386 0.237733 1.41535 0 -0.5 -4.43725 0.015 0 0 -0.346714 0.0353429 
171 1 0.0955264 0.253107 1.42858 0 -0.5 -4.40791 0.025 0 0 -1.60516 0.163625 
226 1 0.110692 0.299304 1.4243 0 -0.5 -4.41743 0.015 0 0 -0.346714 0.0353429 
241 1 0.0849537 0.321018 1.4193 0 -0.5 -4.42851 0.015 0 0 -0.346714 0.0353429 
220 1 0.0242112 0.0729095 1.46293 -0.0669262 -0.554313 -4.32147 0.015 0 0 -0.346714 0.0353429 
177 1 0.148122 0.213926 1.4635 0.112606 -0.398162 -4.33648 0.025 0 0 -1.60516 0.163625 
290 1 0.145882 0.26274 1.4935 0.0439512 -0.299137 -4.21012 0.015 0 0 -0.346714 0.0353429 
166 1 0.0609489 0.355253 1.49836 0 -0.5 -4.24978 0.025 0 0 -1.60516 0.163625 
184 1 0.11251 0.353841 1.4932 0 -0.5 -4.26165 0.025 0 0 -1.60516 0.163625 
249 1 0.0491797 0.291421 1.51257 0 -0.5 -4.21681 0.015 0 0 -0.346714 0.0353429 
270 1 0.0946744 0.283669 1.52363 0 -0.5 -4.19101 0.015 0 0 -0.346714 0.0353429 
216 1 0.0854847 0.0980279 1.54405 0.0481324 -0.610657 -4.11385 0.015 0 0 -0.346714 0.0353429 
222 1 0.123753 0.0936614 1.54023 0 -0.5 -4.15197 0.015 0 0 -0.346714 0.0353429 
170 1 0.165697 0.26802 1.56043 0.161731 -0.381986 -4.12355 0.025 0 0 -1.60516 0.163625 
294 1 0.128315 0.316152 1.53674 0 -0.5 -4.16021 0.015 0 0 -0.346714 0.0353429 
180 1 0.0408423 0.109728 1.57141 -0.021889 -0.504465 -4.06926 0.025 0 0 -1.60516 0.163625 
253 1 0.123075 0.201069 1.57436 0 -0.5 -4.07055 0.015 0 0 -0.346714 0.0353429 
231 1 0.0350342 0.31362 1.56968 0 -0.5 -4.08183 0.015 0 0 -0.346714 0.0353429 
169 1 0.0892107 0.322668 1.58803 0 -0.5 -4.03749 0.025 0 0 -1.60516 0.163625 
209 1 0.0969746 0.0892476 1.61156 0 -0.5 -3.9799 0.015 0 0 -0.346714 0.0353429 
282 1 0.0460395 0.186181 1.59722 -0.2609 -0.673185 -3.98581 0.015 0 0 -0.346714 0.0353429 
296 1 0.146983 0.205001 1.64074 0 -0.5 -3.90731 0.015 0 0 -0.346714 0.0353429 
278 1 0.113612 0.223965 1.63925 0 -0.5 -3.91104 0.015 0 0 -0.346714 0.0353429 
257 1 0.139837 0.336641 1.63965 0 -0.5 -3.91006 0.015 0 0 -0.346714 0.0353429 
235 1 0.134937 0.0923847 1.68171 0 -0.5 -3.80303 0.015 0 0 -0.346714 0.0353429 
168 1 0.0261487 0.126104 1.67203 0 -0.5 -3.82795 0.025 0 0 -1.60516 0.163625 
269 1 0.141487 0.121504 1.66973 0 -0.5 -3.83383 0.015 0 0 -0.346714 0.0353429 
185 1 0.0936576 0.170666 1.68723 0 -0.5 -3.7888 0.025 0 0 -1.60516 0.163625 
217 1 0.133752 0.171691 1.6805 0 -0.5 -3.80617 0.015 0 0 -0.346714 0.0353429 
182 1 0.114565 0.281779 1.67746 0 -0.5 -3.81402 0.025 0 0 -1.60516 0.163625 
162 1 0.0478022 0.326457 1.66562 0 -0.5 -3.84433 0.025 0 0 -1.60516 0.163625 
176 1 0.0399362 0.378472 1.68057 0 -0.5 -3.80597 0.025 0 0 -1.60516 0.163625 
286 1 0.147755 0.37087 1.67966 0 -0.5 -3.80833 0.015 0 0 -0.346714 0.0353429 
153 1 0.0895866 0.0867598 1.70708 0 -0.5 -3.73701 0.025 0 0 -1.60516 0.163625 
251 1 0.126174 0.239559 1.71736 0 -0.5 -3.70993 0.015 0 0 -0.346714 0.0353429 
211 1 0.0694768 0.144972 1.72274 0 -0.5 -3.69571 0.015 0 0 -0.346714 0.0353429 
291 1 0.140432 0.315523 1.73454 0 -0.5 -3.66422 0.015 0 0 -0.346714 0.0353429 
159 1 0.087245 0.374208 1.73561 0 -0.5 -3.66137 0.025 0 0 -1.60516 0.163625 
300 1 0.149285 0.36824 1.74583 0 -0.5 -3.6339 0.015 0 0 -0.346714 0.0353429 
204 1 0.134881 0.133248 1.75386 0 -0.5 -3.61213 0.015 0 0 -0.346714 0.0353429 
161 1 0.135356 0.19085 1.75304 0 -0.5 -3.61438 0.025 0 0 -1.60516 0.163625 
230 1 0.118982 0.231372 1.76699 0 -0.5 -3.57632 0.015 0 0 -0.346714 0.0353429 
228 1 0.0279693 0.340593 1.75939 0 -0.5 -3.59712 0.015 0 0 -0.346714 0.0353429 
175 1 0.0941494 0.126059 1.78241 0 -0.5 -3.53374 0.025 0 0 -1.60516 0.163625 
293 1 0.0548164 0.165145 1.80903 0 -0.5 -3.45909 0.015 0 0 -0.346714 0.0353429 
192 1 0.134392 0.289049 1.80142 0 -0.5 -3.48057 0.025 0 0 -1.60516 0.163625 
285 1 0.0870748 0.326259 1.80274 0 -0.5 -3.47685 0.015 0 0 -0.346714 0.0353429 
256 1 0.0868225 0.358057 1.79842 0 -0.5 -3.48901 0.015 0 0 -0.346714 0.0353429 
240 1 0.0956629 0.38988 1.80521 0 -0.5 -3.46988 0.015 0 0 -0.346714 0.0353429 
250 1 0.138716 0.372193 1.79632 0 -0.5 -3.4949 0.015 0 0 -0.346714 0.0353429 
246 1 0.0494565 0.39301 1.80334 0 -0.5 -3.47518 0.015 0 0 -0.346714 0.0353429 
299 1 0.0153001 0.149541 1.8153 0 -0.5 -3.44124 0.015 0 0 -0.346714 0.0353429 
202 1 0.126943 0.124119 1.8383 0 -0.5 -3.37502 0.015 0 0 -0.346714 0.0353429 
200 1 0.112803 0.182149 1.82825 0 -0.5 -3.40415 0.025 0 0 -1.60516 0.163625 
255 1 0.0340792 0.340865 1.83316 0 -0.5 -3.38993 0.015 0 0 -0.346714 0.0353429 
252 1 0.131256 0.349424 1.83316 0 -0.5 -3.38993 0.015 0 0 -0.346714 0.0353429 
275 1 0.0211058 0.372962 1.81391 0 -0.5 -3.44516 0.015 0 0 -0.346714 0.0353429 
189 1 0.0509787 0.123512 1.86579 0 -0.5 -3.29418 0.025 0 0 -1.60516 0.163625 
247 1 0.0532922 0.177565 1.86063 0 -0.5 -3.30949 0.015 0 0 -0.346714 0.0353429 
245 1 0.0868358 0.149715 1.84684 0 -0.5 -3.3501 0.015 0 0 -0.346714 0.0353429 
287 1 0.130384 0.11435 1.88857 0 -0.5 -3.22561 0.015 0 0 -0.346714 0.0353429 
288 1 0.0326968 0.159446 1.89667 0 -0.5 -3.20089 0.015 0 0 -0.346714 0.0353429 
154 1 0.116388 0.269122 1.87539 0 -0.5 -3.26544 0.025 0 0 -1.60516 0.163625 
295 1 0.103955 0.328828 1.89912 0 -0.5 -3.19334 0.015 0 0 -0.346714 0.0353429 
156 1 0.0411221 0.377187 1.90108 0 -0.5 -3.18735 0.025 0 0 -1.60516 0.163625 
190 1 0.11779 0.382732 1.8829 0 -0.5 -3.24278 0.025 0 0 -1.60516 0.163625 
210 1 0.0872868 0.121386 1.9212 0 -0.5 -3.12477 0.015 0 0 -0.346714 0.0353429 
181 1 0.070397 0.160344 1.9272 0 -0.5 -3.10593 0.025 0 0 -1.60516 0.163625 
165 1 0.148355 0.212191 1.91837 0 -0.5 -3.13369 0.025 0 0 -1.60516 0.163625 
233 1 0.0406697 0.139292 1.95977 0 -0.5 -3.00126 0.015 0 0 -0.346714 0.0353429 
260 1 0.0198171 0.16912 1.94951 0 -0.5 -3.03461 0.015 0 0 -0.346714 0.0353429 
152 1 0.089118 0.227144 1.9441 0 -0.5 -3.05207 0.025 0 0 -1.60516 0.163625 
279 1 0.11959 0.287322 1.95116 0 -0.5 -3.02931 0.015 0 0 -0.346714 0.0353429 
262 1 0.0888361 0.321008 1.95595 0 -0.5 -3.01372 0.015 0 0 -0.346714 0.0353429 
234 1 0.0945525 0.370871 1.952 0 -0.5 -3.02657 0.015 0 0 -0.346714 0.0353429 
208 1 0.0680799 0.407251 1.95701 0 -0.5 -3.01028 0.015 0 0 -0.346714 0.0353429 
207 1 0.128901 0.338384 1.9699 0 -0.5 -2.968 0.015 0 0 -0.346714 0.0353429 
223 1 0.0343911 0.420571 1.98154 0 -0.5 -2.92925 0.015 0 0 -0.346714 0.0353429 
194 1 0.131621 0.398036 1.96767 0 -0.5 -2.97536 0.025 0 0 -1.60516 0.163625 
212 1 0.0737637 0.152983 2.00258 0 -0.5 -2.85793 0.015 0 0 -0.346714 0.0353429 
236 1 0.111584 0.166462 2.0026 0 -0.5 -2.85784 0.015 0 0 -0.346714 0.0353429 
242 1 0.131055 0.244908 2.01713 0 -0.5 -2.80751 0.015 0 0 -0.346714 0.0353429 
191 1 0.0609008 0.367599 2.00535 0 -0.5 -2.84842 0.025 0 0 -1.60516 0.163625 
178 1 0.0370442 0.137146 2.02705 0 -0.5 -2.77268 0.025 0 0 -1.60516 0.163625 
258 1 0.135516 0.148979 2.05429 0 -0.5 -2.67458 0.015 0 0 -0.346714 0.0353429 
224 1 0.132465 0.195362 2.02714 0 -0.5 -2.77229 0.015 0 0 -0.346714 0.0353429 
221 1 0.0987988 0.232271 2.03361 0 -0.5 -2.74934 0.015 0 0 -0.346714 0.0353429 
179 1 0.136485 0.298915 2.04872 0 -0.5 -2.69489 0.025 0 0 -1.60516 0.163625 
187 1 0.0681893 0.20289 2.06497 0 -0.5 -2.63505 0.025 0 0 -1.60516 0.163625 
232 1 0.13999 0.222569 2.08292 0 -0.5 -2.56736 0.015 0 0 -0.346714 0.0353429 
248 1 0.0851139 0.337859 2.0584 0 -0.5 -2.65938 0.015 0 0 -0.346714 0.0353429 
157 1 0.115469 0.387407 2.06756 0 -0.5 -2.62544 0.025 0 0 -1.60516 0.163625 
174 1 0.030822 0.394563 2.08354 0 -0.5 -2.56501 0.025 0 0 -1.60516 0.163625 
264 1 0.0357265 0.431028 2.05987 0 -0.5 -2.65398 0.015 0 0 -0.346714 0.0353429 
277 1 0.0674794 0.424305 2.06881 0 -0.5 -2.62073 0.015 0 0 -0.346714 0.0353429 
205 1 0.0941484 0.148831 2.0887 0 -0.5 -2.54519 0.015 0 0 -0.346714 0.0353429 
201 1 0.0267726 0.16344 2.11315 0 -0.5 -2.44915 0.025 0 0 -1.60516 0.163625 
227 1 0.137271 0.160175 2.09562 0 -0.5 -2.51841 0.015 0 0 -0.346714 0.0353429 
276 1 0.0937292 0.186975 2.1058 0 -0.5 -2.47838 0.015 0 0 -0.346714 0.0353429 
158 1 0.0866624 0.253056 2.1123 0 -0.5 -2.45258 0.025 0 0 -1.60516 0.163625 
172 1 0.137057 0.347876 2.09548 0.205506 -0.272617 -2.74924 0.025 0 0 -1.60516 0.163625 
225 1 0.0772421 0.21011 2.13188 0 -0.5 -2.37293 0.015 0 0 -0.346714 0.0353429 
265 1 0.115746 0.186087 2.13406 0 -0.5 -2.3639 0.015 0 0 -0.346714 0.0353429 
271 1 0.0986202 0.293188 2.13987 -0.00761594 -0.521042 -2.33989 0.015 0 0 -0.346714 0.0353429 
254 1 0.137401 0.300739 2.11915 -1.31397e-05 -0.499936 -2.42504 0.015 0 0 -0.346714 0.0353429 
274 1 0.108923 0.32294 2.13911 0.00849878 -0.475917 -2.34265 0.015 0 0 -0.346714 0.0353429 
183 1 0.0737852 0.384476 2.14416 0 -0.5 -2.32162 0.025 0 0 -1.60516 0.163625 
283 1 0.102888 0.422132 2.12769 0 -0.5 -2.39019 0.015 0 0 -0.346714 0.0353429 
173 1 0.0548933 0.444549 2.13173 0 -0.5 -2.37352 0.025 0 0 -1.60516 0.163625 
229 1 0.102013 0.162371 2.15287 0 -0.5 -2.28454 0.015 0 0 -0.346714 0.0353429 
196 1 0.0520917 0.19526 2.16392 0 -0.5 -2.23657 0.025 0 0 -1.60516 0.163625 
163 1 0.107222 0.226031 2.1702 0 -0.5 -2.20881 0.025 0 0 -1.60516 0.163625 
155 1 0.141768 0.29204 2.171 0 -0.5 -2.20527 0.025 0 0 -1.60516 0.163625 
281 1 0.0312292 0.419757 2.15927 0 -0.5 -2.25687 0.015 0 0 -0.346714 0.0353429 
188 1 0.140755 0.430611 2.16575 0 -0.5 -2.22852 0.025 0 0 -1.60516 0.163625 
298 1 0.114914 0.347821 2.20019 0 -0.5 -2.07137 0.015 0 0 -0.346714 0.0353429 
268 1 0.140569 0.380425 2.18071 0 -0.5 -2.16162 0.015 0 0 -0.346714 0.0353429 
197 1 0.0582019 0.42186 2.1999 0.00113978 -0.501265 -2.07194 0.025 0 0 -1.60516 0.163625 
280 1 0.0336836 0.453334 2.18028 -0.323138 -0.0374805 -2.39734 0.015 0 0 -0.346714 0.0353429 
273 1 0.0779061 0.458083 2.20163 0 -0.5 -2.0645 0.015 0 0 -0.346714 0.0353429 
267 1 0.101401 0.455938 2.18 0 -0.5 -2.16486 0.015 0 0 -0.346714 0.0353429 
218 1 0.0164873 0.215398 2.20831 0 -0.5 -2.03252 0.015 0 0 -0.346714 0.0353429 
238 1 0.105443 0.363301 2.22841 -0 0 -2 0.015 0 0 0 0.0353429 
195 1 0.147227 0.360394 2.23452 -0 0 -2 0.025 0 0 0 0.163625 
167 1 0.118751 0.462916 2.23272 -0 0 -2 0.025 0 0 0 0.163625 
164 1 0.0527853 0.200711 2.24468 -0 0 -2 0.025 0 0 0 0.163625 
261 1 0.0852607 0.230216 2.2629 -0 0 -2 0.015 0 0 0 0.0353429 
160 1 0.118533 0.219824 2.23838 -0 0 -2 0.025 0 0 0 0.163625 
215 1 0.0767991 0.264474 2.24777 -0 0 -2 0.015 0 0 0 0.0353429 
297 1 0.141884 0.27502 2.24554 -0 0 -2 0.015 0 0 0 0.0353429 
243 1 0.113126 0.365244 2.2655 -0 0 -2 0.015 0 0 0 0.0353429 
292 1 0.0287531 0.422464 2.24768 -0 0 -2 0.015 0 0 0 0.0353429 
193 1 0.102412 0.413293 2.26052 -0 0 -2 0.025 0 0 0 0.163625 
198 1 0.0617553 0.466461 2.26062 -0 0 -2 0.025 0 0 0 0.163625 
219 1 0.0278687 0.201322 2.29055 -0 0 -2 0.015 0 0 0 0.0353429 
239 1 0.126558 0.237343 2.28731 -0 0 -2 0.015 0 0 0 0.0353429 
186 1 0.10183 0.291927 2.28008 -0 0 -2 0.025 0 0 0 0.163625 
266 1 0.0917737 0.36017 2.29711 -0 0 -2 0.015 0 0 0 0.0353429 
244 1 0.0497502 0.427977 2.28371 -0 0 -2 0.015 0 0 0 0.0353429 
