ITEM: TIMESTEP
61600
ITEM: NUMBER OF ATOMS
900
ITEM: BOX BOUNDS mm mm mm
-1 1
-1 1
-1.02831 2.85
ITEM: ATOMS id type x y z vx vy vz radius fx fy fz mass 
68 1 -0.0997213 -0.0627286 -0.806363 0 -0.5 -7.95482 0.015 0 0 -0.346714 0.0353429 
137 1 -0.0908875 -0.010327 -0.78729 -0.00924354 -0.479856 -7.93196 0.015 0 0 -0.346714 0.0353429 
45 1 -0.0943793 -0.111762 -0.765293 0 -0.5 -7.904 0.025 0 0 -1.60516 0.163625 
122 1 -0.0680134 -0.0595978 -0.764458 0.00811842 -0.517403 -7.90238 0.015 0 0 -0.346714 0.0353429 
33 1 -0.129286 0.128605 -0.774074 0 -0.5 -7.91489 0.025 0 0 -1.60516 0.163625 
43 1 -0.116198 0.0397854 -0.734853 0 -0.5 -7.86613 0.025 0 0 -1.60516 0.163625 
111 1 -0.0487783 0.1721 -0.733991 0 -0.5 -7.86506 0.015 0 0 -0.346714 0.0353429 
119 1 -0.0370509 -0.122811 -0.72282 0 -0.5 -7.85113 0.015 0 0 -0.346714 0.0353429 
75 1 -0.0493142 -0.0723279 -0.697841 0 -0.5 -7.81983 0.015 0 0 -0.346714 0.0353429 
78 1 -0.0422369 0.135955 -0.711615 0 -0.5 -7.8371 0.015 0 0 -0.346714 0.0353429 
89 1 -0.129145 -0.0436921 -0.688611 0 -0.5 -7.80826 0.015 0 0 -0.346714 0.0353429 
59 1 -0.0865612 0.0848678 -0.668189 0 -0.5 -7.78255 0.015 0 0 -0.346714 0.0353429 
92 1 -0.131017 0.179327 -0.64658 0 -0.5 -7.75528 0.015 0 0 -0.346714 0.0353429 
26 1 -0.0306718 0.0447296 -0.595544 0.14857 -0.341553 -7.72433 0.025 0 0 -1.60516 0.163625 
8 1 -0.104188 -0.104537 -0.542569 0 -0.5 -7.62255 0.025 0 0 -1.60516 0.163625 
98 1 -0.147127 0.0284418 -0.566696 0 -0.5 -7.65355 0.015 0 0 -0.346714 0.0353429 
151 1 -0.0686397 0.110527 -0.567528 0 -0.5 -7.65463 0.015 0 0 -0.346714 0.0353429 
3 1 -0.141317 0.0933879 -0.531508 0 -0.5 -7.60833 0.025 0 0 -1.60516 0.163625 
72 1 -0.105673 0.130796 -0.512452 0 -0.5 -7.5837 0.015 0 0 -0.346714 0.0353429 
100 1 -0.0681017 -0.036079 -0.484977 0 -0.5 -7.54809 0.015 0 0 -0.346714 0.0353429 
140 1 -0.125739 0.00555638 -0.491855 0 -0.5 -7.55702 0.015 0 0 -0.346714 0.0353429 
40 1 -0.104474 0.182198 -0.490274 0 -0.5 -7.55496 0.025 0 0 -1.60516 0.163625 
117 1 -0.0596227 -0.0929792 -0.456524 0 -0.5 -7.51101 0.015 0 0 -0.346714 0.0353429 
118 1 -0.0372647 0.165681 -0.47774 0 -0.5 -7.53868 0.015 0 0 -0.346714 0.0353429 
148 1 -0.200789 0.0610881 -0.442479 -0.171679 -0.397353 -7.56035 0.015 0 0 -0.346714 0.0353429 
51 1 -0.163416 -0.0822603 -0.420647 -0.0265052 -0.519812 -7.45911 0.025 0 0 -1.60516 0.163625 
282 1 -0.0457972 -0.0507796 -0.413541 -0.2609 -0.673185 -7.43893 0.015 0 0 -0.346714 0.0353429 
90 1 -0.146535 0.183667 -0.375902 0 -0.5 -7.40497 0.015 0 0 -0.346714 0.0353429 
60 1 -0.0770515 -0.0840724 -0.348582 0 -0.5 -7.36867 0.015 0 0 -0.346714 0.0353429 
11 1 -0.0952228 0.0832765 -0.359313 0.022917 -0.457889 -7.39783 0.025 0 0 -1.60516 0.163625 
50 1 -0.130982 0.140355 -0.346585 0 -0.5 -7.36602 0.025 0 0 -1.60516 0.163625 
74 1 -0.0790012 0.127893 -0.301607 0 -0.5 -7.30589 0.015 0 0 -0.346714 0.0353429 
105 1 -0.252395 0.0918267 -0.289899 -0.321192 -0.368687 -7.28154 0.015 0 0 -0.346714 0.0353429 
76 1 -0.0202065 0.15607 -0.281122 0 -0.5 -7.27832 0.015 0 0 -0.346714 0.0353429 
44 1 -0.125916 -0.0924035 -0.267465 0 -0.5 -7.25988 0.025 0 0 -1.60516 0.163625 
36 1 -0.103411 -0.0456875 -0.239805 0 -0.5 -7.2224 0.025 0 0 -1.60516 0.163625 
29 1 -0.0788351 0.170182 -0.247537 0 -0.5 -7.2329 0.025 0 0 -1.60516 0.163625 
54 1 -0.175711 -0.0162459 -0.210196 -0.0956439 -0.529683 -7.1711 0.015 0 0 -0.346714 0.0353429 
114 1 -0.0721007 -0.0154826 -0.194129 -0.00040144 -0.499666 -7.16019 0.015 0 0 -0.346714 0.0353429 
73 1 -0.0639552 -0.0662333 -0.155175 0 -0.5 -7.10655 0.015 0 0 -0.346714 0.0353429 
2 1 -0.110349 0.0810712 -0.147799 0 -0.5 -7.09634 0.025 0 0 -1.60516 0.163625 
113 1 -0.118506 0.205198 -0.163369 0 -0.5 -7.11783 0.015 0 0 -0.346714 0.0353429 
146 1 -0.109965 -0.0790837 -0.126346 0 -0.5 -7.06662 0.015 0 0 -0.346714 0.0353429 
12 1 -0.0363281 0.190336 -0.12831 0 -0.5 -7.06937 0.025 0 0 -1.60516 0.163625 
57 1 -0.120673 0.0370605 -0.091418 0 -0.5 -7.01796 0.015 0 0 -0.346714 0.0353429 
88 1 -0.0666498 0.147919 -0.105529 0 -0.5 -7.03768 0.015 0 0 -0.346714 0.0353429 
99 1 -0.146283 -0.0144829 -0.0749411 0 -0.5 -6.99491 0.015 0 0 -0.346714 0.0353429 
10 1 -0.0639908 0.164117 -0.0668733 0.0635655 -0.375939 -7.0516 0.025 0 0 -1.60516 0.163625 
83 1 -0.108229 0.015146 -0.0294758 0 -0.5 -6.93085 0.015 0 0 -0.346714 0.0353429 
34 1 -0.138562 0.154511 -0.0368982 0 -0.5 -6.94135 0.025 0 0 -1.60516 0.163625 
19 1 -0.0715757 -0.00474762 -0.0245674 0 -0.5 -6.92388 0.025 0 0 -1.60516 0.163625 
66 1 -0.0281121 -0.0271772 -0.0193709 0 -0.5 -6.91653 0.015 0 0 -0.346714 0.0353429 
81 1 -0.0331107 0.170635 -0.00353204 0.07636 -0.438847 -6.86404 0.015 0 0 -0.346714 0.0353429 
71 1 -0.145263 0.198198 -0.00851491 0 -0.5 -6.90113 0.015 0 0 -0.346714 0.0353429 
67 1 -0.0183057 -0.0716113 0.0146682 0 -0.5 -6.86807 0.015 0 0 -0.346714 0.0353429 
24 1 -0.138394 -0.0445481 0.0313365 0 -0.5 -6.84423 0.025 0 0 -1.60516 0.163625 
133 1 -0.127566 0.0719444 0.043096 0 -0.5 -6.82735 0.015 0 0 -0.346714 0.0353429 
95 1 -0.10482 0.159312 0.0477973 0 -0.5 -6.82058 0.015 0 0 -0.346714 0.0353429 
39 1 -0.0696793 0.20901 0.047947 0 -0.5 -6.82039 0.025 0 0 -1.60516 0.163625 
103 1 -0.135939 -0.000277675 0.0809716 0 -0.5 -6.77271 0.015 0 0 -0.346714 0.0353429 
143 1 -0.11631 0.217682 0.0926745 0 -0.5 -6.75574 0.015 0 0 -0.346714 0.0353429 
70 1 -0.107191 -0.0180756 0.0973929 0 -0.5 -6.74887 0.015 0 0 -0.346714 0.0353429 
97 1 -0.0338223 -0.014856 0.119016 0 -0.5 -6.71738 0.015 0 0 -0.346714 0.0353429 
115 1 -0.076478 0.0204311 0.119558 0 -0.5 -6.7166 0.015 0 0 -0.346714 0.0353429 
85 1 -0.13789 0.142015 0.122777 0 -0.5 -6.71189 0.015 0 0 -0.346714 0.0353429 
28 1 -0.0685748 -0.0419299 0.131093 0 -0.5 -6.69973 0.025 0 0 -1.60516 0.163625 
134 1 -0.137197 0.182367 0.144262 0 -0.5 -6.6804 0.015 0 0 -0.346714 0.0353429 
120 1 -0.148569 0.231261 0.15635 0 -0.5 -6.66264 0.015 0 0 -0.346714 0.0353429 
77 1 -0.0297287 0.210749 0.153669 0 -0.5 -6.66657 0.015 0 0 -0.346714 0.0353429 
96 1 -0.131998 -0.0149186 0.179539 0 -0.5 -6.62841 0.015 0 0 -0.346714 0.0353429 
126 1 -0.124988 0.0637998 0.16229 -0.0288748 -0.539424 -6.63523 0.015 0 0 -0.346714 0.0353429 
38 1 -0.121616 0.0261879 0.206567 0 -0.5 -6.58828 0.025 0 0 -1.60516 0.163625 
130 1 -0.0642546 0.0204407 0.256808 0 -0.5 -6.51304 0.015 0 0 -0.346714 0.0353429 
23 1 -0.134189 0.162519 0.25564 0 -0.5 -6.51481 0.025 0 0 -1.60516 0.163625 
31 1 -0.140814 -0.0371227 0.30493 0 -0.5 -6.44015 0.025 0 0 -1.60516 0.163625 
150 1 -0.100106 -0.00279308 0.286085 0 -0.5 -6.4688 0.015 0 0 -0.346714 0.0353429 
18 1 -0.106015 0.227686 0.287694 0 -0.5 -6.46635 0.025 0 0 -1.60516 0.163625 
4 1 -0.0330873 0.240857 0.286672 0 -0.5 -6.46792 0.025 0 0 -1.60516 0.163625 
106 1 -0.145062 0.345527 0.307889 -0.0998962 -0.230395 -6.54889 0.015 0 0 -0.346714 0.0353429 
110 1 -0.0868918 -0.0475835 0.338863 0 -0.5 -6.38826 0.015 0 0 -0.346714 0.0353429 
93 1 -0.0244706 -0.0358422 0.35601 0 -0.5 -6.36187 0.015 0 0 -0.346714 0.0353429 
17 1 -0.134634 0.0780265 0.364652 0 -0.5 -6.34853 0.025 0 0 -1.60516 0.163625 
136 1 -0.0832352 0.171008 0.360464 0 -0.5 -6.355 0.015 0 0 -0.346714 0.0353429 
109 1 -0.0676248 0.24608 0.369086 0 -0.5 -6.34166 0.015 0 0 -0.346714 0.0353429 
30 1 -0.0481876 0.198857 0.370429 0 -0.5 -6.3396 0.025 0 0 -1.60516 0.163625 
108 1 -0.089121 -0.0151765 0.4224 0 -0.5 -6.25867 0.015 0 0 -0.346714 0.0353429 
1 1 -0.150975 0.426032 0.407994 -0.021394 -0.0706631 -6.41385 0.025 0 0 -1.60516 0.163625 
69 1 -0.020474 0.00508251 0.450147 0 -0.5 -6.21501 0.015 0 0 -0.346714 0.0353429 
35 1 -0.146938 0.178792 0.458399 0 -0.5 -6.20197 0.025 0 0 -1.60516 0.163625 
22 1 -0.102489 0.110306 0.49022 0 -0.5 -6.15144 0.025 0 0 -1.60516 0.163625 
149 1 -0.0315734 0.100201 0.48146 0.199959 -0.45766 -6.34861 0.015 0 0 -0.346714 0.0353429 
102 1 -0.11709 -0.0151005 0.496677 0 -0.5 -6.14114 0.015 0 0 -0.346714 0.0353429 
14 1 -0.0571303 -0.0230245 0.509973 0 -0.5 -6.11986 0.025 0 0 -1.60516 0.163625 
139 1 -0.104092 0.042572 0.496483 0 -0.5 -6.14144 0.015 0 0 -0.346714 0.0353429 
144 1 -0.0691235 0.0454741 0.495327 0 -0.5 -6.1433 0.015 0 0 -0.346714 0.0353429 
55 1 -0.0960002 0.216401 0.515768 -7.52477e-06 -0.49998 -6.11057 0.015 0 0 -0.346714 0.0353429 
141 1 -0.136875 0.0582642 0.528107 0 -0.5 -6.09072 0.015 0 0 -0.346714 0.0353429 
21 1 -0.0470047 0.2615 0.545962 0 -0.5 -6.06188 0.025 0 0 -1.60516 0.163625 
94 1 -0.257584 0.209935 0.560735 -0.356499 -0.190573 -6.09811 0.015 0 0 -0.346714 0.0353429 
87 1 -0.113676 0.179588 0.564052 0 -0.5 -6.03255 0.015 0 0 -0.346714 0.0353429 
107 1 -0.141609 -0.0260523 0.59631 0 -0.5 -5.97987 0.015 0 0 -0.346714 0.0353429 
112 1 -0.073338 0.0572787 0.628154 0 -0.5 -5.92738 0.015 0 0 -0.346714 0.0353429 
84 1 -0.116406 0.137786 0.623951 0 -0.5 -5.93435 0.015 0 0 -0.346714 0.0353429 
147 1 -0.100309 0.249431 0.615625 0 -0.5 -5.94808 0.015 0 0 -0.346714 0.0353429 
142 1 -0.0724928 -0.00125219 0.654496 0 -0.5 -5.88363 0.015 0 0 -0.346714 0.0353429 
47 1 -0.140465 0.22145 0.654613 0 -0.5 -5.88344 0.025 0 0 -1.60516 0.163625 
145 1 -0.0934491 0.214113 0.65709 0 -0.5 -5.87932 0.015 0 0 -0.346714 0.0353429 
6 1 -0.0702907 0.0477574 0.682254 0.101461 -0.428163 -5.84281 0.025 0 0 -1.60516 0.163625 
80 1 -0.102893 0.184893 0.676323 0 -0.5 -5.84714 0.015 0 0 -0.346714 0.0353429 
32 1 -0.173249 -0.0232316 0.714447 -0.0613285 -0.540948 -5.77987 0.025 0 0 -1.60516 0.163625 
138 1 -0.0317395 0.00131559 0.734572 0 -0.5 -5.74855 0.015 0 0 -0.346714 0.0353429 
135 1 -0.140472 0.0668926 0.711501 0 -0.5 -5.78779 0.015 0 0 -0.346714 0.0353429 
15 1 -0.0763876 0.15272 0.72298 0.0430154 -0.390763 -5.73561 0.025 0 0 -1.60516 0.163625 
62 1 -0.0849655 0.274406 0.711168 0 -0.5 -5.78838 0.015 0 0 -0.346714 0.0353429 
280 1 -0.080061 0.440141 0.728668 -0.323138 -0.0374805 -5.85046 0.015 0 0 -0.346714 0.0353429 
128 1 -0.145291 0.151677 0.736593 0 -0.5 -5.74511 0.015 0 0 -0.346714 0.0353429 
121 1 -0.0679495 0.256078 0.760925 0 -0.5 -5.70342 0.015 0 0 -0.346714 0.0353429 
129 1 -0.0553418 0.0251994 0.805553 0 -0.5 -5.62612 0.015 0 0 -0.346714 0.0353429 
13 1 -0.146779 0.107821 0.823298 0 -0.5 -5.59512 0.025 0 0 -1.60516 0.163625 
101 1 -0.102489 0.117824 0.818358 0 -0.5 -5.60375 0.015 0 0 -0.346714 0.0353429 
37 1 -0.0716655 0.220665 0.817685 0 -0.5 -5.60493 0.025 0 0 -1.60516 0.163625 
46 1 -0.032303 0.282569 0.82402 0 -0.5 -5.59384 0.025 0 0 -1.60516 0.163625 
61 1 -0.0231802 -0.00506524 0.837025 0 -0.5 -5.57099 0.015 0 0 -0.346714 0.0353429 
52 1 -0.100497 0.0104895 0.847027 0 -0.5 -5.55333 0.015 0 0 -0.346714 0.0353429 
79 1 -0.0179342 0.0289843 0.837129 0 -0.5 -5.57079 0.015 0 0 -0.346714 0.0353429 
20 1 -0.124339 0.165888 0.855972 0 -0.5 -5.53754 0.025 0 0 -1.60516 0.163625 
91 1 -0.124131 0.214132 0.837688 0 -0.5 -5.56981 0.015 0 0 -0.346714 0.0353429 
5 1 -0.137704 0.0384118 0.860007 0 -0.5 -5.53037 0.025 0 0 -1.60516 0.163625 
7 1 -0.0712578 0.0774494 0.864041 0 -0.5 -5.52321 0.025 0 0 -1.60516 0.163625 
86 1 -0.142939 0.207059 0.90649 0 -0.5 -5.44728 0.015 0 0 -0.346714 0.0353429 
9 1 -0.0320364 0.241159 0.910634 0 -0.5 -5.43983 0.025 0 0 -1.60516 0.163625 
65 1 -0.147981 0.0150967 0.944001 0 -0.5 -5.3793 0.015 0 0 -0.346714 0.0353429 
58 1 -0.0969698 0.111891 0.927443 0 -0.5 -5.40942 0.015 0 0 -0.346714 0.0353429 
124 1 -0.136447 0.237377 0.927288 0 -0.5 -5.40971 0.015 0 0 -0.346714 0.0353429 
41 1 -0.107908 0.292758 0.940889 0 -0.5 -5.38499 0.025 0 0 -1.60516 0.163625 
131 1 -0.025873 0.28004 0.977429 0 -0.5 -5.31799 0.015 0 0 -0.346714 0.0353429 
104 1 -0.138444 0.179217 0.988896 0 -0.5 -5.2968 0.015 0 0 -0.346714 0.0353429 
49 1 -0.0613084 0.0257105 1.03487 0 -0.5 -5.21096 0.025 0 0 -1.60516 0.163625 
132 1 -0.0234712 0.0481681 1.01133 0 -0.5 -5.25511 0.015 0 0 -0.346714 0.0353429 
48 1 -0.144727 0.105852 1.01037 0 -0.5 -5.25687 0.025 0 0 -1.60516 0.163625 
53 1 -0.106432 0.15034 1.01291 0 -0.5 -5.25216 0.015 0 0 -0.346714 0.0353429 
16 1 -0.129915 0.249079 1.03858 0 -0.5 -5.204 0.025 0 0 -1.60516 0.163625 
27 1 -0.0637137 0.275885 1.03935 0 -0.5 -5.20252 0.025 0 0 -1.60516 0.163625 
82 1 -0.0851821 0.239627 1.04611 0 -0.5 -5.18977 0.015 0 0 -0.346714 0.0353429 
63 1 -0.147823 0.305713 1.05718 0 -0.5 -5.16878 0.015 0 0 -0.346714 0.0353429 
25 1 -0.104447 0.0597853 1.09119 0 -0.5 -5.10383 0.025 0 0 -1.60516 0.163625 
127 1 -0.0304133 0.0716212 1.07784 0 -0.5 -5.12944 0.015 0 0 -0.346714 0.0353429 
56 1 -0.11556 0.303119 1.07767 0 -0.5 -5.12973 0.015 0 0 -0.346714 0.0353429 
42 1 -0.132916 0.152796 1.10818 0 -0.5 -5.07107 0.025 0 0 -1.60516 0.163625 
123 1 -0.11925 0.209492 1.11248 0 -0.5 -5.06273 0.015 0 0 -0.346714 0.0353429 
125 1 -0.0960051 0.265127 1.13096 0 -0.5 -5.02683 0.015 0 0 -0.346714 0.0353429 
64 1 -0.145219 0.273177 1.12878 0 -0.5 -5.03104 0.015 0 0 -0.346714 0.0353429 
392 1 -0.0201822 0.0233766 1.14829 0 -0.5 -4.99288 0.015 0 0 -0.346714 0.0353429 
361 1 -0.0655065 0.0511594 1.14539 0 -0.5 -4.99857 0.015 0 0 -0.346714 0.0353429 
375 1 -0.132504 0.0882129 1.15636 0 -0.5 -4.97699 0.015 0 0 -0.346714 0.0353429 
391 1 -0.0665259 0.25019 1.14698 0 -0.5 -4.99543 0.015 0 0 -0.346714 0.0353429 
353 1 -0.0778865 0.10451 1.17855 0 -0.5 -4.93304 0.015 0 0 -0.346714 0.0353429 
432 1 -0.110656 0.164023 1.19267 0 -0.5 -4.90489 0.015 0 0 -0.346714 0.0353429 
423 1 -0.035066 0.268352 1.19077 0 -0.5 -4.90871 0.015 0 0 -0.346714 0.0353429 
370 1 -0.0476722 0.322061 1.17852 0 -0.5 -4.93314 0.015 0 0 -0.346714 0.0353429 
449 1 -0.121601 0.0289702 1.2053 0 -0.5 -4.87958 0.015 0 0 -0.346714 0.0353429 
348 1 -0.0477476 0.0394497 1.22549 -0.0150753 -0.514502 -4.83543 0.025 0 0 -1.60516 0.163625 
409 1 -0.1116 0.136279 1.23329 0 -0.5 -4.82297 0.015 0 0 -0.346714 0.0353429 
434 1 -0.110177 0.296235 1.23083 0 -0.5 -4.82798 0.015 0 0 -0.346714 0.0353429 
304 1 -0.147639 0.262299 1.26052 0 -0.5 -4.76725 0.025 0 0 -1.60516 0.163625 
368 1 -0.0426125 0.0741031 1.31326 0 -0.5 -4.65748 0.015 0 0 -0.346714 0.0353429 
414 1 -0.12165 0.206412 1.29511 0 -0.5 -4.69554 0.015 0 0 -0.346714 0.0353429 
416 1 -0.148865 0.227752 1.30794 0 -0.5 -4.66866 0.015 0 0 -0.346714 0.0353429 
422 1 -0.0856494 0.290628 1.31141 0 -0.5 -4.6614 0.015 0 0 -0.346714 0.0353429 
327 1 -0.047146 0.299396 1.28957 0 -0.5 -4.70712 0.025 0 0 -1.60516 0.163625 
307 1 -0.141488 0.0683164 1.34163 0 -0.5 -4.59734 0.025 0 0 -1.60516 0.163625 
328 1 -0.101567 0.0993596 1.32988 0 -0.5 -4.62236 0.025 0 0 -1.60516 0.163625 
342 1 -0.0942786 0.250007 1.33111 0 -0.5 -4.61971 0.025 0 0 -1.60516 0.163625 
441 1 -0.0895132 0.328957 1.34204 0 -0.5 -4.59646 0.015 0 0 -0.346714 0.0353429 
440 1 -0.074831 0.0506332 1.35528 0 -0.5 -4.56811 0.015 0 0 -0.346714 0.0353429 
352 1 -0.144025 0.287939 1.36632 0 -0.5 -4.54437 0.015 0 0 -0.346714 0.0353429 
330 1 -0.125578 0.344028 1.3708 0 -0.5 -4.53466 0.025 0 0 -1.60516 0.163625 
388 1 -0.0545692 0.114686 1.38386 0 -0.5 -4.50631 0.015 0 0 -0.346714 0.0353429 
323 1 -0.131477 0.183813 1.38185 0 -0.5 -4.51072 0.025 0 0 -1.60516 0.163625 
406 1 -0.0920408 0.287666 1.39232 0 -0.5 -4.48787 0.015 0 0 -0.346714 0.0353429 
418 1 -0.0554251 0.0609403 1.43275 0 -0.5 -4.39859 0.015 0 0 -0.346714 0.0353429 
318 1 -0.126425 0.261158 1.43034 0 -0.5 -4.40399 0.025 0 0 -1.60516 0.163625 
331 1 -0.138106 0.055831 1.44622 0 -0.5 -4.36848 0.025 0 0 -1.60516 0.163625 
395 1 -0.110093 0.111872 1.43983 0 -0.5 -4.3828 0.015 0 0 -0.346714 0.0353429 
313 1 -0.0392615 0.0996895 1.45972 0 -0.5 -4.33807 0.025 0 0 -1.60516 0.163625 
336 1 -0.025747 0.294523 1.43894 0 -0.5 -4.38476 0.025 0 0 -1.60516 0.163625 
374 1 -0.133879 0.321467 1.46209 0 -0.5 -4.33267 0.015 0 0 -0.346714 0.0353429 
315 1 -0.0970947 0.166406 1.48354 0 -0.5 -4.28382 0.025 0 0 -1.60516 0.163625 
407 1 -0.0713596 0.294089 1.48501 0 -0.5 -4.28048 0.015 0 0 -0.346714 0.0353429 
310 1 -0.0919271 0.331993 1.48059 0 -0.5 -4.29059 0.025 0 0 -1.60516 0.163625 
377 1 -0.128279 0.0837203 1.52301 0 -0.5 -4.19249 0.015 0 0 -0.346714 0.0353429 
445 1 -0.0938501 0.236643 1.49933 0 -0.5 -4.24752 0.015 0 0 -0.346714 0.0353429 
386 1 -0.118095 0.30511 1.51897 0 -0.5 -4.2019 0.015 0 0 -0.346714 0.0353429 
302 1 -0.0567477 0.0813163 1.55845 0 -0.5 -4.10871 0.025 0 0 -1.60516 0.163625 
401 1 -0.0913429 0.11278 1.55643 0 -0.5 -4.11352 0.015 0 0 -0.346714 0.0353429 
439 1 -0.132801 0.199897 1.55338 0 -0.5 -4.12077 0.015 0 0 -0.346714 0.0353429 
344 1 -0.147144 0.237445 1.53936 0 -0.5 -4.15403 0.025 0 0 -1.60516 0.163625 
355 1 -0.0483468 0.128759 1.58903 0 -0.5 -4.03504 0.015 0 0 -0.346714 0.0353429 
314 1 -0.136534 0.149236 1.56754 0 -0.5 -4.08693 0.025 0 0 -1.60516 0.163625 
413 1 -0.0512121 0.298816 1.5828 0 -0.5 -4.05014 0.015 0 0 -0.346714 0.0353429 
442 1 -0.149932 0.358171 1.58415 0 -0.5 -4.04691 0.015 0 0 -0.346714 0.0353429 
431 1 -0.13363 0.109651 1.5964 0 -0.5 -4.01708 0.015 0 0 -0.346714 0.0353429 
446 1 -0.116317 0.266626 1.61798 0 -0.5 -3.96401 0.015 0 0 -0.346714 0.0353429 
354 1 -0.0927402 0.297498 1.59479 0 -0.5 -4.02101 0.015 0 0 -0.346714 0.0353429 
382 1 -0.106792 0.384872 1.61426 0.026541 -0.439017 -4.06023 0.015 0 0 -0.346714 0.0353429 
408 1 -0.087028 0.366439 1.5933 0 -0.5 -4.02464 0.015 0 0 -0.346714 0.0353429 
411 1 -0.0485728 0.349056 1.62594 0 -0.5 -3.94429 0.015 0 0 -0.346714 0.0353429 
427 1 -0.0999012 0.417256 1.64765 0.0988458 -0.172977 -4.09746 0.015 0 0 -0.346714 0.0353429 
324 1 -0.0498553 0.0867032 1.6813 0 -0.5 -3.80411 0.025 0 0 -1.60516 0.163625 
350 1 -0.147794 0.119395 1.67156 0 -0.5 -3.82912 0.025 0 0 -1.60516 0.163625 
399 1 -0.074527 0.132048 1.65995 0 -0.5 -3.85875 0.015 0 0 -0.346714 0.0353429 
335 1 -0.126459 0.180418 1.67134 0 -0.5 -3.82971 0.025 0 0 -1.60516 0.163625 
436 1 -0.0854574 0.186951 1.65929 0 -0.5 -3.86042 0.015 0 0 -0.346714 0.0353429 
341 1 -0.148816 0.300228 1.662 0 -0.5 -3.85355 0.025 0 0 -1.60516 0.163625 
385 1 -0.0696212 0.309365 1.67807 0 -0.5 -3.81245 0.015 0 0 -0.346714 0.0353429 
384 1 -0.166927 0.389615 1.67454 -0.135564 -0.440896 -3.84355 0.015 0 0 -0.346714 0.0353429 
389 1 -0.0230912 0.373676 1.66316 0 -0.5 -3.85061 0.015 0 0 -0.346714 0.0353429 
437 1 -0.0723044 0.163232 1.68878 0 -0.5 -3.78478 0.015 0 0 -0.346714 0.0353429 
394 1 -0.145405 0.338684 1.71231 0 -0.5 -3.72327 0.015 0 0 -0.346714 0.0353429 
358 1 -0.127277 0.110792 1.73748 0 -0.5 -3.65637 0.015 0 0 -0.346714 0.0353429 
367 1 -0.106717 0.143831 1.7235 0 -0.5 -3.69365 0.015 0 0 -0.346714 0.0353429 
326 1 -0.145564 0.240454 1.73916 0 -0.5 -3.65186 0.025 0 0 -1.60516 0.163625 
424 1 -0.129811 0.364789 1.73062 -0.0730123 -0.390635 -3.6849 0.015 0 0 -0.346714 0.0353429 
319 1 -0.0687817 0.390025 1.73487 0 -0.5 -3.66333 0.025 0 0 -1.60516 0.163625 
426 1 -0.0179373 0.368964 1.72311 0 -0.5 -3.69473 0.015 0 0 -0.346714 0.0353429 
376 1 -0.0824761 0.155772 1.75733 0 -0.5 -3.60271 0.015 0 0 -0.346714 0.0353429 
433 1 -0.118613 0.0966652 1.78121 0 -0.5 -3.53708 0.015 0 0 -0.346714 0.0353429 
420 1 -0.037203 0.104826 1.78468 0 -0.5 -3.52747 0.015 0 0 -0.346714 0.0353429 
402 1 -0.101682 0.140287 1.78802 0 -0.5 -3.51815 0.015 0 0 -0.346714 0.0353429 
306 1 -0.116739 0.318034 1.78692 0 -0.5 -3.52119 0.025 0 0 -1.60516 0.163625 
412 1 -0.0937388 0.388584 1.79238 0 -0.5 -3.50598 0.015 0 0 -0.346714 0.0353429 
363 1 -0.0911777 0.217327 1.80968 0 -0.5 -3.45723 0.015 0 0 -0.346714 0.0353429 
360 1 -0.116599 0.241221 1.80816 0 -0.5 -3.46154 0.015 0 0 -0.346714 0.0353429 
397 1 -0.0557758 0.329618 1.81319 0 -0.5 -3.44722 0.015 0 0 -0.346714 0.0353429 
381 1 -0.0827007 0.363114 1.83497 0 -0.5 -3.38473 0.015 0 0 -0.346714 0.0353429 
371 1 -0.0449321 0.368104 1.8066 0 -0.5 -3.46596 0.015 0 0 -0.346714 0.0353429 
322 1 -0.131733 0.127564 1.83804 0 -0.5 -3.3758 0.025 0 0 -1.60516 0.163625 
398 1 -0.00790838 0.217912 1.85061 0.308366 -0.162474 -3.37967 0.015 0 0 -0.346714 0.0353429 
373 1 -0.136858 0.274184 1.84632 0 -0.5 -3.35167 0.015 0 0 -0.346714 0.0353429 
396 1 -0.0958984 0.29466 1.83993 0 -0.5 -3.37031 0.015 0 0 -0.346714 0.0353429 
369 1 -0.138958 0.332563 1.84885 0 -0.5 -3.34422 0.015 0 0 -0.346714 0.0353429 
383 1 -0.0262689 0.350803 1.84983 0 -0.5 -3.34137 0.015 0 0 -0.346714 0.0353429 
308 1 -0.0777193 0.144031 1.8698 -0.0168546 -0.516386 -3.28017 0.025 0 0 -1.60516 0.163625 
415 1 -0.127182 0.17813 1.88937 0 -0.5 -3.22316 0.015 0 0 -0.346714 0.0353429 
343 1 -0.140775 0.236899 1.89571 0 -0.5 -3.20383 0.025 0 0 -1.60516 0.163625 
438 1 -0.0987495 0.226333 1.87098 0 -0.5 -3.27868 0.015 0 0 -0.346714 0.0353429 
356 1 -0.111476 0.269564 1.87728 0 -0.5 -3.25975 0.015 0 0 -0.346714 0.0353429 
443 1 -0.0906469 0.324658 1.88756 0 -0.5 -3.22865 0.015 0 0 -0.346714 0.0353429 
340 1 -0.149237 0.397237 1.87683 0 -0.5 -3.26112 0.025 0 0 -1.60516 0.163625 
390 1 -0.0988461 0.13859 1.9227 0 -0.5 -3.12006 0.015 0 0 -0.346714 0.0353429 
349 1 -0.116564 0.356594 1.89926 0 -0.5 -3.19295 0.025 0 0 -1.60516 0.163625 
351 1 -0.0409452 0.355112 1.9034 0 -0.5 -3.18019 0.015 0 0 -0.346714 0.0353429 
448 1 -0.0329565 0.14757 1.94229 0 -0.5 -3.05786 0.015 0 0 -0.346714 0.0353429 
347 1 -0.0548177 0.18489 1.94735 0 -0.5 -3.04158 0.025 0 0 -1.60516 0.163625 
378 1 -0.121409 0.233198 1.95327 0 -0.5 -3.02245 0.015 0 0 -0.346714 0.0353429 
312 1 -0.134707 0.292718 1.95424 0 -0.5 -3.01931 0.025 0 0 -1.60516 0.163625 
417 1 -0.0160313 0.392054 1.95423 0 -0.5 -3.01931 0.015 0 0 -0.346714 0.0353429 
346 1 -0.151401 0.429841 1.95395 -0.0151472 -0.325165 -3.07774 0.025 0 0 -1.60516 0.163625 
419 1 -0.111609 0.129519 1.96909 0 -0.5 -2.97065 0.015 0 0 -0.346714 0.0353429 
362 1 -0.0154426 0.179609 1.96658 0 -0.5 -2.97889 0.015 0 0 -0.346714 0.0353429 
421 1 -0.0930175 0.209542 1.98143 0 -0.5 -2.92964 0.015 0 0 -0.346714 0.0353429 
359 1 -0.107325 0.337399 1.96073 0 -0.5 -2.99812 0.015 0 0 -0.346714 0.0353429 
303 1 -0.0551599 0.356479 1.96695 0 -0.5 -2.97771 0.025 0 0 -1.60516 0.163625 
334 1 -0.103439 0.392448 1.97617 0 -0.5 -2.9472 0.025 0 0 -1.60516 0.163625 
325 1 -0.117824 0.253025 2.01326 0 -0.5 -2.82105 0.025 0 0 -1.60516 0.163625 
365 1 -0.143943 0.347894 2.00321 0.0322739 -0.84426 -2.74246 0.015 0 0 -0.346714 0.0353429 
309 1 -0.144284 0.168031 2.03885 0 -0.5 -2.7306 0.025 0 0 -1.60516 0.163625 
320 1 -0.0648735 0.168929 2.02556 0 -0.5 -2.77788 0.025 0 0 -1.60516 0.163625 
430 1 -0.123083 0.215393 2.04777 0 -0.5 -2.69832 0.015 0 0 -0.346714 0.0353429 
403 1 -0.0833248 0.221397 2.05039 0 -0.5 -2.68881 0.015 0 0 -0.346714 0.0353429 
387 1 -0.0901615 0.330452 2.04174 0 -0.5 -2.7202 0.015 0 0 -0.346714 0.0353429 
372 1 -0.0702168 0.352237 2.03023 0 -0.5 -2.7614 0.015 0 0 -0.346714 0.0353429 
447 1 -0.122284 0.433789 2.02632 0 -0.5 -2.77524 0.015 0 0 -0.346714 0.0353429 
338 1 -0.0583644 0.421556 2.04048 0 -0.5 -2.72471 0.025 0 0 -1.60516 0.163625 
379 1 -0.0327871 0.170329 2.06299 0 -0.5 -2.64241 0.015 0 0 -0.346714 0.0353429 
393 1 -0.015571 0.392279 2.05985 0 -0.5 -2.65408 0.015 0 0 -0.346714 0.0353429 
316 1 -0.0983119 0.154111 2.09195 0 -0.5 -2.53263 0.025 0 0 -1.60516 0.163625 
364 1 -0.0453235 0.184807 2.10222 0 -0.5 -2.49251 0.015 0 0 -0.346714 0.0353429 
321 1 -0.126579 0.225251 2.10307 0 -0.5 -2.48918 0.025 0 0 -1.60516 0.163625 
357 1 -0.0584785 0.219214 2.08666 0 -0.5 -2.55304 0.015 0 0 -0.346714 0.0353429 
410 1 -0.145474 0.274536 2.1069 0 -0.5 -2.47407 0.015 0 0 -0.346714 0.0353429 
333 1 -0.0978849 0.287337 2.10389 0 -0.5 -2.48594 0.025 0 0 -1.60516 0.163625 
380 1 -0.127355 0.329976 2.09812 0 -0.5 -2.5086 0.015 0 0 -0.346714 0.0353429 
301 1 -0.0877897 0.393713 2.09315 0.012148 -0.512208 -2.52801 0.025 0 0 -1.60516 0.163625 
428 1 -0.0387226 0.404002 2.09726 0 -0.5 -2.51203 0.015 0 0 -0.346714 0.0353429 
329 1 -0.124201 0.430416 2.08997 -0.0138001 -0.485947 -2.54042 0.025 0 0 -1.60516 0.163625 
450 1 -0.0322061 0.448898 2.0983 0 -0.5 -2.50791 0.015 0 0 -0.346714 0.0353429 
337 1 -0.142368 0.370838 2.11614 0 -0.5 -2.43718 0.025 0 0 -1.60516 0.163625 
425 1 -0.074083 0.162787 2.1602 0 -0.5 -2.25285 0.015 0 0 -0.346714 0.0353429 
311 1 -0.0354402 0.178368 2.16881 0 -0.5 -2.21499 0.025 0 0 -1.60516 0.163625 
332 1 -0.0814262 0.216266 2.1485 0 -0.5 -2.30318 0.025 0 0 -1.60516 0.163625 
400 1 -0.135353 0.259905 2.15152 0 -0.5 -2.29033 0.015 0 0 -0.346714 0.0353429 
317 1 -0.129905 0.302055 2.16602 0 -0.5 -2.22735 0.025 0 0 -1.60516 0.163625 
366 1 -0.144217 0.379022 2.16407 0 -0.5 -2.23588 0.015 0 0 -0.346714 0.0353429 
405 1 -0.038992 0.41339 2.16867 0 -0.5 -2.21557 0.015 0 0 -0.346714 0.0353429 
339 1 -0.0802774 0.42466 2.15976 0 -0.5 -2.25472 0.025 0 0 -1.60516 0.163625 
305 1 -0.0452536 0.461472 2.16019 0 -0.5 -2.25285 0.025 0 0 -1.60516 0.163625 
404 1 -0.119976 0.183844 2.17784 0 -0.5 -2.17467 0.015 0 0 -0.346714 0.0353429 
345 1 -0.128178 0.226674 2.17508 0 -0.5 -2.18703 0.025 0 0 -1.60516 0.163625 
435 1 -0.0960728 0.263976 2.17819 0 -0.5 -2.1731 0.015 0 0 -0.346714 0.0353429 
444 1 -0.0159467 0.459826 2.19092 0 -0.5 -2.11483 0.015 0 0 -0.346714 0.0353429 
714 1 -0.0240605 0.228326 2.20634 0 -0.5 -2.04204 0.015 0 0 -0.346714 0.0353429 
676 1 -0.132839 0.255867 2.21389 0 -0.5 -2.00544 0.015 0 0 -0.346714 0.0353429 
652 1 -0.0683105 0.258868 2.22089 -0 0 -2 0.015 0 0 0 0.0353429 
629 1 -0.113195 0.304511 2.2265 -0 0 -2 0.025 0 0 0 0.163625 
675 1 -0.129194 0.409085 2.21234 0 -0.5 -2.013 0.015 0 0 -0.346714 0.0353429 
634 1 -0.102181 0.448021 2.21027 0 -0.5 -2.0231 0.025 0 0 -1.60516 0.163625 
690 1 -0.0634806 0.426565 2.20926 0 -0.5 -2.02791 0.015 0 0 -0.346714 0.0353429 
669 1 -0.0318411 0.436013 2.22254 -0 0 -2 0.015 0 0 0 0.0353429 
608 1 -0.0938106 0.190518 2.24011 -0 0 -2 0.025 0 0 0 0.163625 
682 1 -0.0469368 0.185531 2.24401 -0 0 -2 0.015 0 0 0 0.0353429 
657 1 -0.0480729 0.222592 2.24836 -0 0 -2 0.015 0 0 0 0.0353429 
735 1 -0.0832421 0.264469 2.25581 -0 0 -2 0.015 0 0 0 0.0353429 
606 1 -0.122934 0.377365 2.24095 -0 0 -2 0.025 0 0 0 0.163625 
708 1 -0.0786991 0.414901 2.24101 -0 0 -2 0.015 0 0 0 0.0353429 
660 1 -0.0183143 0.425627 2.25001 -0 0 -2 0.015 0 0 0 0.0353429 
701 1 -0.0870486 0.472769 2.24262 -0 0 -2 0.015 0 0 0 0.0353429 
707 1 -0.0900659 0.206764 2.28391 -0 0 -2 0.015 0 0 0 0.0353429 
618 1 -0.13283 0.225849 2.27626 -0 0 -2 0.025 0 0 0 0.163625 
680 1 -0.0791761 0.259986 2.29059 -0 0 -2 0.015 0 0 0 0.0353429 
709 1 -0.101732 0.309231 2.27221 -0 0 -2 0.015 0 0 0 0.0353429 
649 1 -0.129761 0.339812 2.28447 -0 0 -2 0.025 0 0 0 0.163625 
750 1 -0.0862874 0.372619 2.27725 -0 0 -2 0.015 0 0 0 0.0353429 
677 1 -0.113879 0.190408 2.31059 -0 0 -2 0.015 0 0 0 0.0353429 
640 1 -0.0489559 0.223297 2.29589 -0 0 -2 0.025 0 0 0 0.163625 
744 1 -0.107021 0.37483 2.3186 -0 0 -2 0.015 0 0 0 0.0353429 
616 1 -0.140255 0.428954 2.29625 -0 0 -2 0.025 0 0 0 0.163625 
725 1 -0.0732043 0.428899 2.30586 -0 0 -2 0.015 0 0 0 0.0353429 
712 1 -0.0372677 0.47295 2.30142 -0 0 -2 0.015 0 0 0 0.0353429 
610 1 -0.108705 0.213129 2.35269 -0 0 -2 0.025 0 0 0 0.163625 
692 1 -0.0389882 0.23636 2.34584 -0 0 -2 0.015 0 0 0 0.0353429 
736 1 -0.0864872 0.278273 2.3331 -0 0 -2 0.015 0 0 0 0.0353429 
722 1 -0.124711 0.413708 2.34588 -0 0 -2 0.015 0 0 0 0.0353429 
685 1 -0.0969629 0.419298 2.32862 -0 0 -2 0.015 0 0 0 0.0353429 
683 1 -0.0829948 0.413557 2.35516 -0 0 -2 0.015 0 0 0 0.0353429 
620 1 -0.0294016 0.445755 2.35102 -0 0 -2 0.025 0 0 0 0.163625 
674 1 -0.11657 0.471494 2.3432 -0 0 -2 0.015 0 0 0 0.0353429 
699 1 -0.0856858 0.473675 2.34199 -0 0 -2 0.015 0 0 0 0.0353429 
705 1 -0.0946775 0.182879 2.3846 -0 0 -2 0.015 0 0 0 0.0353429 
748 1 -0.0192599 0.200066 2.36207 -0 0 -2 0.015 0 0 0 0.0353429 
625 1 -0.115962 0.283889 2.36387 -0 0 -2 0.025 0 0 0 0.163625 
678 1 -0.0973357 0.337318 2.37466 -0 0 -2 0.015 0 0 0 0.0353429 
636 1 -0.149776 0.383946 2.36912 -0 0 -2 0.025 0 0 0 0.163625 
696 1 -0.058387 0.410183 2.38164 -0 0 -2 0.015 0 0 0 0.0353429 
732 1 -0.0691875 0.449832 2.35826 -0 0 -2 0.015 0 0 0 0.0353429 
644 1 -0.140738 0.186408 2.41058 -0 0 -2 0.025 0 0 0 0.163625 
637 1 -0.0618774 0.209032 2.40615 -0 0 -2 0.025 0 0 0 0.163625 
730 1 -0.0250727 0.190561 2.40176 -0 0 -2 0.015 0 0 0 0.0353429 
729 1 -0.0894542 0.239788 2.40748 -0 0 -2 0.015 0 0 0 0.0353429 
641 1 -0.143995 0.248499 2.38914 -0 0 -2 0.025 0 0 0 0.163625 
724 1 -0.0903421 0.274729 2.41614 -0 0 -2 0.015 0 0 0 0.0353429 
694 1 -0.138308 0.343846 2.39655 -0 0 -2 0.015 0 0 0 0.0353429 
733 1 -0.0833844 0.376757 2.39708 -0 0 -2 0.015 0 0 0 0.0353429 
698 1 -0.111785 0.421731 2.39055 -0 0 -2 0.015 0 0 0 0.0353429 
648 1 -0.130879 0.464062 2.38615 -0 0 -2 0.025 0 0 0 0.163625 
639 1 -0.0758688 0.455316 2.41346 -0 0 -2 0.025 0 0 0 0.163625 
684 1 -0.0877228 0.214649 2.43838 -0 0 -2 0.015 0 0 0 0.0353429 
627 1 -0.14504 0.290308 2.44397 -0 0 -2 0.025 0 0 0 0.163625 
745 1 -0.114925 0.311202 2.42556 -0 0 -2 0.015 0 0 0 0.0353429 
628 1 -0.0865924 0.407234 2.42401 -0 0 -2 0.025 0 0 0 0.163625 
679 1 -0.13837 0.180668 2.45296 -0 0 -2 0.015 0 0 0 0.0353429 
691 1 -0.0734004 0.189006 2.4611 -0 0 -2 0.015 0 0 0 0.0353429 
706 1 -0.129002 0.229476 2.45681 -0 0 -2 0.015 0 0 0 0.0353429 
741 1 -0.142229 0.250235 2.47547 -0 0 -2 0.015 0 0 0 0.0353429 
633 1 -0.0885839 0.256976 2.46802 -0 0 -2 0.025 0 0 0 0.163625 
603 1 -0.121744 0.345667 2.44885 -0 0 -2 0.025 0 0 0 0.163625 
702 1 -0.149858 0.401742 2.45521 -0 0 -2 0.015 0 0 0 0.0353429 
695 1 -0.0580393 0.404144 2.45955 -0 0 -2 0.015 0 0 0 0.0353429 
673 1 -0.0172558 0.429744 2.46568 -0 0 -2 0.015 0 0 0 0.0353429 
635 1 -0.142362 0.4734 2.45318 -0 0 -2 0.025 0 0 0 0.163625 
703 1 -0.0877381 0.462891 2.45249 -0 0 -2 0.015 0 0 0 0.0353429 
728 1 -0.112468 0.204973 2.49041 -0 0 -2 0.015 0 0 0 0.0353429 
740 1 -0.0241674 0.189645 2.47676 -0 0 -2 0.015 0 0 0 0.0353429 
667 1 -0.096529 0.23189 2.50218 -0 0 -2 0.015 0 0 0 0.0353429 
704 1 -0.0317726 0.220718 2.48044 -0 0 -2 0.015 0 0 0 0.0353429 
617 1 -0.113434 0.299985 2.49531 -0 0 -2 0.025 0 0 0 0.163625 
621 1 -0.0949278 0.379245 2.47708 -0 0 -2 0.025 0 0 0 0.163625 
622 1 -0.140441 0.405087 2.49649 -0 0 -2 0.025 0 0 0 0.163625 
651 1 -0.060053 0.444242 2.48443 -0 0 -2 0.025 0 0 0 0.163625 
614 1 -0.127167 0.457223 2.5063 -0 0 -2 0.025 0 0 0 0.163625 
731 1 -0.0916629 0.473786 2.48894 -0 0 -2 0.015 0 0 0 0.0353429 
663 1 -0.107061 0.184437 2.51702 -0 0 -2 0.015 0 0 0 0.0353429 