ITEM: TIMESTEP
81600
ITEM: NUMBER OF ATOMS
900
ITEM: BOX BOUNDS mm mm mm
-1 1
-1 1
-2.89001 2.85
ITEM: ATOMS id type x y z vx vy vz radius fx fy fz mass 
68 1 -0.0997213 -0.162729 -2.59353 0 -0.5 -9.91682 0.015 0 0 -0.346714 0.0353429 
137 1 -0.0927362 -0.106298 -2.56988 -0.00924354 -0.479856 -9.89396 0.015 0 0 -0.346714 0.0353429 
45 1 -0.0943793 -0.211762 -2.54229 0 -0.5 -9.866 0.025 0 0 -1.60516 0.163625 
122 1 -0.0663897 -0.163079 -2.54113 0.00811842 -0.517403 -9.86438 0.015 0 0 -0.346714 0.0353429 
33 1 -0.129286 0.0286047 -2.55325 0 -0.5 -9.87689 0.025 0 0 -1.60516 0.163625 
43 1 -0.116198 -0.0602146 -2.50428 0 -0.5 -9.82813 0.025 0 0 -1.60516 0.163625 
111 1 -0.0487783 0.0721 -2.5032 0 -0.5 -9.82706 0.015 0 0 -0.346714 0.0353429 
119 1 -0.0370509 -0.222811 -2.48925 0 -0.5 -9.81313 0.015 0 0 -0.346714 0.0353429 
78 1 -0.0422369 0.0359551 -2.47523 0 -0.5 -9.7991 0.015 0 0 -0.346714 0.0353429 
75 1 -0.0493142 -0.172328 -2.45801 0 -0.5 -9.78183 0.015 0 0 -0.346714 0.0353429 
89 1 -0.129145 -0.143692 -2.44646 0 -0.5 -9.77026 0.015 0 0 -0.346714 0.0353429 
220 1 -0.012732 -0.233071 -2.41709 -0.0669262 -0.554313 -9.73659 0.015 0 0 -0.346714 0.0353429 
59 1 -0.0865612 -0.0151322 -2.4209 0 -0.5 -9.74455 0.015 0 0 -0.346714 0.0353429 
92 1 -0.131017 0.0793272 -2.39384 0 -0.5 -9.71728 0.015 0 0 -0.346714 0.0353429 
26 1 -0.00095775 -0.023581 -2.33661 0.14857 -0.341553 -9.68633 0.025 0 0 -1.60516 0.163625 
98 1 -0.147127 -0.0715582 -2.29361 0 -0.5 -9.61555 0.015 0 0 -0.346714 0.0353429 
151 1 -0.0686397 0.010527 -2.29465 0 -0.5 -9.61663 0.015 0 0 -0.346714 0.0353429 
8 1 -0.104188 -0.204537 -2.26328 0 -0.5 -9.58455 0.025 0 0 -1.60516 0.163625 
3 1 -0.141317 -0.00661208 -2.24937 0 -0.5 -9.57033 0.025 0 0 -1.60516 0.163625 
140 1 -0.125739 -0.0944436 -2.19946 0 -0.5 -9.51902 0.015 0 0 -0.346714 0.0353429 
72 1 -0.105673 0.030796 -2.22539 0 -0.5 -9.5457 0.015 0 0 -0.346714 0.0353429 
40 1 -0.104474 0.0821982 -2.19747 0 -0.5 -9.51696 0.025 0 0 -1.60516 0.163625 
100 1 -0.0681017 -0.136079 -2.1908 0 -0.5 -9.51009 0.015 0 0 -0.346714 0.0353429 
118 1 -0.0372647 0.0656811 -2.18168 0 -0.5 -9.50068 0.015 0 0 -0.346714 0.0353429 
117 1 -0.0596227 -0.192979 -2.15493 0 -0.5 -9.47301 0.015 0 0 -0.346714 0.0353429 
148 1 -0.235125 -0.0183825 -2.15075 -0.171679 -0.397353 -9.52235 0.015 0 0 -0.346714 0.0353429 
51 1 -0.168717 -0.186223 -2.10867 -0.0265052 -0.519812 -9.42111 0.025 0 0 -1.60516 0.163625 
282 1 -0.0979772 -0.185417 -2.09753 -0.2609 -0.673185 -9.40093 0.015 0 0 -0.346714 0.0353429 
90 1 -0.146535 0.0836669 -2.0531 0 -0.5 -9.36697 0.015 0 0 -0.346714 0.0353429 
60 1 -0.0770515 -0.184072 -2.01852 0 -0.5 -9.33067 0.015 0 0 -0.346714 0.0353429 
11 1 -0.0906394 -0.00830118 -2.03508 0.022917 -0.457889 -9.35983 0.025 0 0 -1.60516 0.163625 
50 1 -0.130982 0.0403549 -2.01599 0 -0.5 -9.32802 0.025 0 0 -1.60516 0.163625 
74 1 -0.0790012 0.0278934 -1.95898 0 -0.5 -9.26789 0.015 0 0 -0.346714 0.0353429 
105 1 -0.316634 0.0180893 -1.94241 -0.321192 -0.368687 -9.24354 0.015 0 0 -0.346714 0.0353429 
76 1 -0.0202065 0.05607 -1.93299 0 -0.5 -9.24032 0.015 0 0 -0.346714 0.0353429 
44 1 -0.125916 -0.192403 -1.91564 0 -0.5 -9.22188 0.025 0 0 -1.60516 0.163625 
36 1 -0.103411 -0.145688 -1.88049 0 -0.5 -9.1844 0.025 0 0 -1.60516 0.163625 
29 1 -0.0788351 0.0701821 -1.89032 0 -0.5 -9.1949 0.025 0 0 -1.60516 0.163625 
54 1 -0.194839 -0.122183 -1.84062 -0.0956439 -0.529683 -9.1331 0.015 0 0 -0.346714 0.0353429 
114 1 -0.072181 -0.115416 -1.82237 -0.00040144 -0.499666 -9.12219 0.015 0 0 -0.346714 0.0353429 
73 1 -0.0639552 -0.166233 -1.77268 0 -0.5 -9.06855 0.015 0 0 -0.346714 0.0353429 
113 1 -0.118506 0.105198 -1.78313 0 -0.5 -9.07983 0.015 0 0 -0.346714 0.0353429 
2 1 -0.110349 -0.0189288 -1.76327 0 -0.5 -9.05834 0.025 0 0 -1.60516 0.163625 
146 1 -0.109965 -0.179084 -1.73587 0 -0.5 -9.02862 0.015 0 0 -0.346714 0.0353429 
12 1 -0.0363281 0.0903359 -1.73838 0 -0.5 -9.03137 0.025 0 0 -1.60516 0.163625 
57 1 -0.120673 -0.0629395 -1.69121 0 -0.5 -8.97996 0.015 0 0 -0.346714 0.0353429 
88 1 -0.0666498 0.0479185 -1.70927 0 -0.5 -8.99968 0.015 0 0 -0.346714 0.0353429 
99 1 -0.146283 -0.114483 -1.67012 0 -0.5 -8.95691 0.015 0 0 -0.346714 0.0353429 
10 1 -0.0512777 0.0889289 -1.67339 0.0635655 -0.375939 -9.0136 0.025 0 0 -1.60516 0.163625 
34 1 -0.138562 0.054511 -1.62137 0 -0.5 -8.90335 0.025 0 0 -1.60516 0.163625 
66 1 -0.0281121 -0.127177 -1.59888 0 -0.5 -8.87853 0.015 0 0 -0.346714 0.0353429 
19 1 -0.0715757 -0.104748 -1.60554 0 -0.5 -8.88588 0.025 0 0 -1.60516 0.163625 
83 1 -0.108229 -0.084854 -1.61185 0 -0.5 -8.89285 0.015 0 0 -0.346714 0.0353429 
81 1 -0.0178387 0.0828652 -1.57254 0.07636 -0.438847 -8.82604 0.015 0 0 -0.346714 0.0353429 
71 1 -0.145263 0.0981975 -1.58494 0 -0.5 -8.86313 0.015 0 0 -0.346714 0.0353429 
67 1 -0.0183057 -0.171611 -1.55514 0 -0.5 -8.83007 0.015 0 0 -0.346714 0.0353429 
24 1 -0.138394 -0.144548 -1.53371 0 -0.5 -8.80623 0.025 0 0 -1.60516 0.163625 
133 1 -0.127566 -0.0280556 -1.51857 0 -0.5 -8.78935 0.015 0 0 -0.346714 0.0353429 
95 1 -0.10482 0.0593122 -1.51252 0 -0.5 -8.78258 0.015 0 0 -0.346714 0.0353429 
39 1 -0.0696793 0.10901 -1.51233 0 -0.5 -8.78239 0.025 0 0 -1.60516 0.163625 
103 1 -0.135939 -0.100278 -1.46977 0 -0.5 -8.73471 0.015 0 0 -0.346714 0.0353429 
70 1 -0.107191 -0.118076 -1.44858 0 -0.5 -8.71087 0.015 0 0 -0.346714 0.0353429 
143 1 -0.11631 0.117682 -1.45467 0 -0.5 -8.71774 0.015 0 0 -0.346714 0.0353429 
97 1 -0.0338223 -0.114856 -1.42066 0 -0.5 -8.67938 0.015 0 0 -0.346714 0.0353429 
115 1 -0.076478 -0.0795689 -1.41996 0 -0.5 -8.6786 0.015 0 0 -0.346714 0.0353429 
85 1 -0.13789 0.0420152 -1.4158 0 -0.5 -8.67389 0.015 0 0 -0.346714 0.0353429 
28 1 -0.0685748 -0.14193 -1.40505 0 -0.5 -8.66173 0.025 0 0 -1.60516 0.163625 
134 1 -0.137197 0.0823666 -1.38802 0 -0.5 -8.6424 0.015 0 0 -0.346714 0.0353429 
126 1 -0.130763 -0.044085 -1.36096 -0.0288748 -0.539424 -8.59723 0.015 0 0 -0.346714 0.0353429 
77 1 -0.0297287 0.110749 -1.37584 0 -0.5 -8.62857 0.015 0 0 -0.346714 0.0353429 
120 1 -0.148569 0.131261 -1.37238 0 -0.5 -8.62464 0.015 0 0 -0.346714 0.0353429 
96 1 -0.131998 -0.114919 -1.34234 0 -0.5 -8.59041 0.015 0 0 -0.346714 0.0353429 
38 1 -0.121616 -0.0738121 -1.30729 0 -0.5 -8.55028 0.025 0 0 -1.60516 0.163625 
130 1 -0.0642546 -0.0795593 -1.242 0 -0.5 -8.47504 0.015 0 0 -0.346714 0.0353429 
23 1 -0.134189 0.062519 -1.24352 0 -0.5 -8.47681 0.025 0 0 -1.60516 0.163625 
150 1 -0.100106 -0.102793 -1.20387 0 -0.5 -8.4308 0.015 0 0 -0.346714 0.0353429 
18 1 -0.106015 0.127686 -1.20178 0 -0.5 -8.42835 0.025 0 0 -1.60516 0.163625 
4 1 -0.0330873 0.140857 -1.20311 0 -0.5 -8.42992 0.025 0 0 -1.60516 0.163625 
106 1 -0.165042 0.299448 -1.19809 -0.0998962 -0.230395 -8.51089 0.015 0 0 -0.346714 0.0353429 
31 1 -0.140814 -0.137123 -1.1793 0 -0.5 -8.40215 0.025 0 0 -1.60516 0.163625 
110 1 -0.0868918 -0.147583 -1.13499 0 -0.5 -8.35026 0.015 0 0 -0.346714 0.0353429 
93 1 -0.0244706 -0.135842 -1.11256 0 -0.5 -8.32387 0.015 0 0 -0.346714 0.0353429 
136 1 -0.0832352 0.0710076 -1.10674 0 -0.5 -8.317 0.015 0 0 -0.346714 0.0353429 
17 1 -0.134634 -0.0219735 -1.10125 0 -0.5 -8.31053 0.025 0 0 -1.60516 0.163625 
30 1 -0.0481876 0.0988572 -1.09369 0 -0.5 -8.3016 0.025 0 0 -1.60516 0.163625 
109 1 -0.0676248 0.14608 -1.09545 0 -0.5 -8.30366 0.015 0 0 -0.346714 0.0353429 
1 1 -0.155254 0.4119 -1.07098 -0.021394 -0.0706631 -8.37585 0.025 0 0 -1.60516 0.163625 
108 1 -0.089121 -0.115176 -1.02553 0 -0.5 -8.22067 0.015 0 0 -0.346714 0.0353429 
69 1 -0.020474 -0.0949175 -0.989056 0 -0.5 -8.17701 0.015 0 0 -0.346714 0.0353429 
35 1 -0.146938 0.078792 -0.978194 0 -0.5 -8.16397 0.025 0 0 -1.60516 0.163625 
102 1 -0.11709 -0.115101 -0.927751 0 -0.5 -8.10314 0.015 0 0 -0.346714 0.0353429 
139 1 -0.104092 -0.057428 -0.928005 0 -0.5 -8.10344 0.015 0 0 -0.346714 0.0353429 
144 1 -0.0691235 -0.0545259 -0.929533 0 -0.5 -8.1053 0.015 0 0 -0.346714 0.0353429 
22 1 -0.102489 0.0103065 -0.936269 0 -0.5 -8.11344 0.025 0 0 -1.60516 0.163625 
14 1 -0.0571303 -0.123025 -0.910198 0 -0.5 -8.08186 0.025 0 0 -1.60516 0.163625 
55 1 -0.0960017 0.116405 -0.902545 -7.52477e-06 -0.49998 -8.07257 0.015 0 0 -0.346714 0.0353429 
141 1 -0.136875 -0.0417358 -0.886238 0 -0.5 -8.05272 0.015 0 0 -0.346714 0.0353429 
87 1 -0.113676 0.0795876 -0.838657 0 -0.5 -7.99455 0.015 0 0 -0.346714 0.0353429 
94 1 -0.328884 0.17182 -0.855088 -0.356499 -0.190573 -8.06011 0.015 0 0 -0.346714 0.0353429 
21 1 -0.0470047 0.1615 -0.862614 0 -0.5 -8.02388 0.025 0 0 -1.60516 0.163625 
107 1 -0.141609 -0.126052 -0.795864 0 -0.5 -7.94187 0.015 0 0 -0.346714 0.0353429 
112 1 -0.073338 -0.0427213 -0.753522 0 -0.5 -7.88938 0.015 0 0 -0.346714 0.0353429 
84 1 -0.116406 0.0377863 -0.759119 0 -0.5 -7.89635 0.015 0 0 -0.346714 0.0353429 
147 1 -0.100309 0.149431 -0.770192 0 -0.5 -7.91008 0.015 0 0 -0.346714 0.0353429 
142 1 -0.0724928 -0.101252 -0.718431 0 -0.5 -7.84563 0.015 0 0 -0.346714 0.0353429 
145 1 -0.0934491 0.114113 -0.714973 0 -0.5 -7.84132 0.015 0 0 -0.346714 0.0353429 
47 1 -0.140465 0.12145 -0.718275 0 -0.5 -7.84544 0.025 0 0 -1.60516 0.163625 
6 1 -0.0499984 -0.0378753 -0.682508 0.101461 -0.428163 -7.80481 0.025 0 0 -1.60516 0.163625 
80 1 -0.102893 0.0848925 -0.689305 0 -0.5 -7.80914 0.015 0 0 -0.346714 0.0353429 
32 1 -0.185514 -0.131421 -0.637727 -0.0613285 -0.540948 -7.74187 0.025 0 0 -1.60516 0.163625 
135 1 -0.140472 -0.0331074 -0.642257 0 -0.5 -7.74979 0.015 0 0 -0.346714 0.0353429 
62 1 -0.0849655 0.174406 -0.642707 0 -0.5 -7.75038 0.015 0 0 -0.346714 0.0353429 
280 1 -0.144689 0.432644 -0.637625 -0.323138 -0.0374805 -7.81246 0.015 0 0 -0.346714 0.0353429 
138 1 -0.0317395 -0.0986844 -0.611337 0 -0.5 -7.71055 0.015 0 0 -0.346714 0.0353429 
128 1 -0.145291 0.0516768 -0.60863 0 -0.5 -7.70711 0.015 0 0 -0.346714 0.0353429 
15 1 -0.0677845 0.0745677 -0.620342 0.0430154 -0.390763 -7.69761 0.025 0 0 -1.60516 0.163625 
121 1 -0.0679495 0.156078 -0.57596 0 -0.5 -7.66542 0.015 0 0 -0.346714 0.0353429 
129 1 -0.0553418 -0.0748006 -0.515871 0 -0.5 -7.58812 0.015 0 0 -0.346714 0.0353429 
61 1 -0.0231802 -0.105065 -0.473372 0 -0.5 -7.53299 0.015 0 0 -0.346714 0.0353429 
79 1 -0.0179342 -0.0710157 -0.473229 0 -0.5 -7.53279 0.015 0 0 -0.346714 0.0353429 
13 1 -0.146779 0.00782107 -0.491926 0 -0.5 -7.55712 0.025 0 0 -1.60516 0.163625 
101 1 -0.102489 0.0178245 -0.498593 0 -0.5 -7.56575 0.015 0 0 -0.346714 0.0353429 
91 1 -0.124131 0.114132 -0.472474 0 -0.5 -7.53181 0.015 0 0 -0.346714 0.0353429 
37 1 -0.0716655 0.120665 -0.499501 0 -0.5 -7.56693 0.025 0 0 -1.60516 0.163625 
46 1 -0.032303 0.182569 -0.490949 0 -0.5 -7.55584 0.025 0 0 -1.60516 0.163625 
52 1 -0.100497 -0.0895105 -0.459838 0 -0.5 -7.51533 0.015 0 0 -0.346714 0.0353429 
5 1 -0.137704 -0.0615882 -0.442268 0 -0.5 -7.49237 0.025 0 0 -1.60516 0.163625 
20 1 -0.124339 0.0658877 -0.447735 0 -0.5 -7.49954 0.025 0 0 -1.60516 0.163625 
7 1 -0.0712578 -0.0225506 -0.436802 0 -0.5 -7.48521 0.025 0 0 -1.60516 0.163625 
58 1 -0.0969698 0.0118907 -0.35064 0 -0.5 -7.37142 0.015 0 0 -0.346714 0.0353429 
86 1 -0.142939 0.107059 -0.379166 0 -0.5 -7.40928 0.015 0 0 -0.346714 0.0353429 
124 1 -0.136447 0.137377 -0.350854 0 -0.5 -7.37171 0.015 0 0 -0.346714 0.0353429 
9 1 -0.0320364 0.141159 -0.373531 0 -0.5 -7.40183 0.025 0 0 -1.60516 0.163625 
65 1 -0.147981 -0.0849033 -0.328059 0 -0.5 -7.3413 0.015 0 0 -0.346714 0.0353429 
41 1 -0.107908 0.192758 -0.332309 0 -0.5 -7.34699 0.025 0 0 -1.60516 0.163625 
104 1 -0.138444 0.0792171 -0.266664 0 -0.5 -7.2588 0.015 0 0 -0.346714 0.0353429 
131 1 -0.025873 0.18004 -0.282369 0 -0.5 -7.27999 0.015 0 0 -0.346714 0.0353429 
132 1 -0.0234712 -0.0518319 -0.23589 0 -0.5 -7.21711 0.015 0 0 -0.346714 0.0353429 
48 1 -0.144727 0.00585204 -0.237201 0 -0.5 -7.21887 0.025 0 0 -1.60516 0.163625 
53 1 -0.106432 0.0503403 -0.233726 0 -0.5 -7.21416 0.015 0 0 -0.346714 0.0353429 
49 1 -0.0613084 -0.0742895 -0.203525 0 -0.5 -7.17296 0.025 0 0 -1.60516 0.163625 
16 1 -0.129915 0.149079 -0.198424 0 -0.5 -7.166 0.025 0 0 -1.60516 0.163625 
82 1 -0.0851821 0.139627 -0.188045 0 -0.5 -7.15177 0.015 0 0 -0.346714 0.0353429 
27 1 -0.0637137 0.175885 -0.197358 0 -0.5 -7.16452 0.025 0 0 -1.60516 0.163625 
63 1 -0.147823 0.205713 -0.172776 0 -0.5 -7.13078 0.015 0 0 -0.346714 0.0353429 
127 1 -0.0304133 -0.0283788 -0.144253 0 -0.5 -7.09144 0.015 0 0 -0.346714 0.0353429 
56 1 -0.11556 0.203119 -0.144473 0 -0.5 -7.09173 0.015 0 0 -0.346714 0.0353429 
25 1 -0.104447 -0.0402147 -0.125773 0 -0.5 -7.06583 0.025 0 0 -1.60516 0.163625 
42 1 -0.132916 0.0527956 -0.102238 0 -0.5 -7.03307 0.025 0 0 -1.60516 0.163625 
123 1 -0.11925 0.109492 -0.0962657 0 -0.5 -7.02473 0.015 0 0 -0.346714 0.0353429 
392 1 -0.0201822 -0.0766234 -0.0464837 0 -0.5 -6.95488 0.015 0 0 -0.346714 0.0353429 
361 1 -0.0655065 -0.0488406 -0.0505256 0 -0.5 -6.96057 0.015 0 0 -0.346714 0.0353429 
64 1 -0.145219 0.173177 -0.0736272 0 -0.5 -6.99304 0.015 0 0 -0.346714 0.0353429 
125 1 -0.0960051 0.165127 -0.0706031 0 -0.5 -6.98883 0.015 0 0 -0.346714 0.0353429 
391 1 -0.0665259 0.15019 -0.0483039 0 -0.5 -6.95743 0.015 0 0 -0.346714 0.0353429 
375 1 -0.132504 -0.0117871 -0.0352374 0 -0.5 -6.93899 0.015 0 0 -0.346714 0.0353429 
353 1 -0.0778865 0.00451012 -0.00425595 0 -0.5 -6.89504 0.015 0 0 -0.346714 0.0353429 
423 1 -0.035066 0.168352 0.0128241 0 -0.5 -6.87071 0.015 0 0 -0.346714 0.0353429 
370 1 -0.0476722 0.222061 -0.00430571 0 -0.5 -6.89514 0.015 0 0 -0.346714 0.0353429 
449 1 -0.121601 -0.0710298 0.0331868 0 -0.5 -6.84158 0.015 0 0 -0.346714 0.0353429 
432 1 -0.110656 0.0640228 0.0154921 0 -0.5 -6.86689 0.015 0 0 -0.346714 0.0353429 
348 1 -0.0507627 -0.0634507 0.0622032 -0.0150753 -0.514502 -6.79743 0.025 0 0 -1.60516 0.163625 
409 1 -0.1116 0.0362793 0.0724912 0 -0.5 -6.78497 0.015 0 0 -0.346714 0.0353429 
434 1 -0.110177 0.196235 0.0690362 0 -0.5 -6.78998 0.015 0 0 -0.346714 0.0353429 
304 1 -0.147639 0.162299 0.110874 0 -0.5 -6.72925 0.025 0 0 -1.60516 0.163625 
414 1 -0.12165 0.106412 0.1598 0 -0.5 -6.65754 0.015 0 0 -0.346714 0.0353429 
327 1 -0.047146 0.199396 0.151951 0 -0.5 -6.66912 0.025 0 0 -1.60516 0.163625 
368 1 -0.0426125 -0.0258969 0.185564 0 -0.5 -6.61948 0.015 0 0 -0.346714 0.0353429 
416 1 -0.148865 0.127752 0.178012 0 -0.5 -6.63066 0.015 0 0 -0.346714 0.0353429 
422 1 -0.0856494 0.190628 0.182925 0 -0.5 -6.6234 0.015 0 0 -0.346714 0.0353429 
307 1 -0.141488 -0.0316836 0.225961 0 -0.5 -6.55934 0.025 0 0 -1.60516 0.163625 
328 1 -0.101567 -0.000640443 0.209206 0 -0.5 -6.58436 0.025 0 0 -1.60516 0.163625 
342 1 -0.0942786 0.150007 0.210971 0 -0.5 -6.58171 0.025 0 0 -1.60516 0.163625 
441 1 -0.0895132 0.228957 0.226543 0 -0.5 -6.55846 0.015 0 0 -0.346714 0.0353429 
440 1 -0.074831 -0.0493668 0.245458 0 -0.5 -6.53011 0.015 0 0 -0.346714 0.0353429 
388 1 -0.0545692 0.0146855 0.286403 0 -0.5 -6.46831 0.015 0 0 -0.346714 0.0353429 
323 1 -0.131477 0.0838135 0.283502 0 -0.5 -6.47272 0.025 0 0 -1.60516 0.163625 
352 1 -0.144025 0.187939 0.261244 0 -0.5 -6.50637 0.015 0 0 -0.346714 0.0353429 
330 1 -0.125578 0.244028 0.267671 0 -0.5 -6.49666 0.025 0 0 -1.60516 0.163625 
406 1 -0.0920408 0.187666 0.29855 0 -0.5 -6.44987 0.015 0 0 -0.346714 0.0353429 
331 1 -0.138106 -0.044169 0.376326 0 -0.5 -6.33048 0.025 0 0 -1.60516 0.163625 
418 1 -0.0554251 -0.0390597 0.35683 0 -0.5 -6.36059 0.015 0 0 -0.346714 0.0353429 
395 1 -0.110093 0.0118721 0.36707 0 -0.5 -6.3448 0.015 0 0 -0.346714 0.0353429 
318 1 -0.126425 0.161158 0.353341 0 -0.5 -6.36599 0.025 0 0 -1.60516 0.163625 
336 1 -0.025747 0.194523 0.365792 0 -0.5 -6.34676 0.025 0 0 -1.60516 0.163625 
313 1 -0.0392615 -0.00031051 0.395905 0 -0.5 -6.30007 0.025 0 0 -1.60516 0.163625 
374 1 -0.133879 0.221467 0.399355 0 -0.5 -6.29467 0.015 0 0 -0.346714 0.0353429 
315 1 -0.0970947 0.0664065 0.430578 0 -0.5 -6.24582 0.025 0 0 -1.60516 0.163625 
407 1 -0.0713596 0.194089 0.432714 0 -0.5 -6.24248 0.015 0 0 -0.346714 0.0353429 
310 1 -0.0919271 0.231993 0.426272 0 -0.5 -6.25259 0.025 0 0 -1.60516 0.163625 
445 1 -0.0938501 0.136643 0.453629 0 -0.5 -6.20952 0.015 0 0 -0.346714 0.0353429 
377 1 -0.128279 -0.0162797 0.488315 0 -0.5 -6.15449 0.015 0 0 -0.346714 0.0353429 
386 1 -0.118095 0.20511 0.48239 0 -0.5 -6.1639 0.015 0 0 -0.346714 0.0353429 
344 1 -0.147144 0.137445 0.512349 0 -0.5 -6.11603 0.025 0 0 -1.60516 0.163625 
302 1 -0.0567477 -0.0186837 0.540504 0 -0.5 -6.07071 0.025 0 0 -1.60516 0.163625 
401 1 -0.0913429 0.0127804 0.537531 0 -0.5 -6.07552 0.015 0 0 -0.346714 0.0353429 
314 1 -0.136534 0.0492362 0.553957 0 -0.5 -6.04893 0.025 0 0 -1.60516 0.163625 
439 1 -0.132801 0.0998967 0.533029 0 -0.5 -6.08277 0.015 0 0 -0.346714 0.0353429 
355 1 -0.0483468 0.0287585 0.585821 0 -0.5 -5.99704 0.015 0 0 -0.346714 0.0353429 
413 1 -0.0512121 0.198816 0.576568 0 -0.5 -6.01214 0.015 0 0 -0.346714 0.0353429 
442 1 -0.149932 0.258171 0.578564 0 -0.5 -6.00891 0.015 0 0 -0.346714 0.0353429 
431 1 -0.13363 0.00965063 0.596779 0 -0.5 -5.97908 0.015 0 0 -0.346714 0.0353429 
354 1 -0.0927402 0.197498 0.594388 0 -0.5 -5.98301 0.015 0 0 -0.346714 0.0353429 
408 1 -0.087028 0.266439 0.592174 0 -0.5 -5.98664 0.015 0 0 -0.346714 0.0353429 
382 1 -0.101484 0.297069 0.606017 0.026541 -0.439017 -6.02223 0.015 0 0 -0.346714 0.0353429 
446 1 -0.116317 0.166626 0.628981 0 -0.5 -5.92601 0.015 0 0 -0.346714 0.0353429 
411 1 -0.0485728 0.249056 0.640881 0 -0.5 -5.90629 0.015 0 0 -0.346714 0.0353429 
427 1 -0.080132 0.38266 0.631959 0.0988458 -0.172977 -6.05946 0.015 0 0 -0.346714 0.0353429 
350 1 -0.147794 0.0193949 0.709536 0 -0.5 -5.79112 0.025 0 0 -1.60516 0.163625 
399 1 -0.074527 0.0320481 0.692 0 -0.5 -5.82075 0.015 0 0 -0.346714 0.0353429 
335 1 -0.126459 0.0804178 0.709202 0 -0.5 -5.79171 0.025 0 0 -1.60516 0.163625 
436 1 -0.0854574 0.0869506 0.69101 0 -0.5 -5.82242 0.015 0 0 -0.346714 0.0353429 
341 1 -0.148816 0.200228 0.695088 0 -0.5 -5.81555 0.025 0 0 -1.60516 0.163625 
389 1 -0.0230912 0.273676 0.696837 0 -0.5 -5.81261 0.015 0 0 -0.346714 0.0353429 
384 1 -0.19404 0.301436 0.709626 -0.135564 -0.440896 -5.80555 0.015 0 0 -0.346714 0.0353429 
324 1 -0.0498553 -0.0132968 0.724281 0 -0.5 -5.76611 0.025 0 0 -1.60516 0.163625 
437 1 -0.0723044 0.0632318 0.735623 0 -0.5 -5.74678 0.015 0 0 -0.346714 0.0353429 
385 1 -0.0696212 0.209365 0.719377 0 -0.5 -5.77445 0.015 0 0 -0.346714 0.0353429 
394 1 -0.145405 0.238684 0.771454 0 -0.5 -5.68527 0.015 0 0 -0.346714 0.0353429 
367 1 -0.106717 0.0438308 0.788573 0 -0.5 -5.65565 0.015 0 0 -0.346714 0.0353429 
426 1 -0.0179373 0.268964 0.787962 0 -0.5 -5.65673 0.015 0 0 -0.346714 0.0353429 
424 1 -0.144413 0.286662 0.797438 -0.0730123 -0.390635 -5.6469 0.015 0 0 -0.346714 0.0353429 
358 1 -0.127277 0.0107924 0.810003 0 -0.5 -5.61837 0.015 0 0 -0.346714 0.0353429 
326 1 -0.145564 0.140454 0.812587 0 -0.5 -5.61386 0.025 0 0 -1.60516 0.163625 
319 1 -0.0687817 0.290025 0.806004 0 -0.5 -5.62533 0.025 0 0 -1.60516 0.163625 
376 1 -0.0824761 0.0557717 0.840588 0 -0.5 -5.56471 0.015 0 0 -0.346714 0.0353429 
433 1 -0.118613 -0.00333476 0.87759 0 -0.5 -5.49908 0.015 0 0 -0.346714 0.0353429 
420 1 -0.037203 0.00482565 0.882986 0 -0.5 -5.48947 0.015 0 0 -0.346714 0.0353429 
402 1 -0.101682 0.040287 0.888192 0 -0.5 -5.48015 0.015 0 0 -0.346714 0.0353429 
306 1 -0.116739 0.218034 0.886486 0 -0.5 -5.48319 0.025 0 0 -1.60516 0.163625 
363 1 -0.0911777 0.117327 0.922031 0 -0.5 -5.41923 0.015 0 0 -0.346714 0.0353429 
360 1 -0.116599 0.141221 0.919656 0 -0.5 -5.42354 0.015 0 0 -0.346714 0.0353429 
371 1 -0.0449321 0.268104 0.917205 0 -0.5 -5.42796 0.015 0 0 -0.346714 0.0353429 
412 1 -0.0937388 0.288584 0.89498 0 -0.5 -5.46798 0.015 0 0 -0.346714 0.0353429 
397 1 -0.0557758 0.229618 0.927548 0 -0.5 -5.40922 0.015 0 0 -0.346714 0.0353429 
322 1 -0.131733 0.0275637 0.966676 0 -0.5 -5.3378 0.025 0 0 -1.60516 0.163625 
373 1 -0.136858 0.174184 0.979785 0 -0.5 -5.31367 0.015 0 0 -0.346714 0.0353429 
396 1 -0.0958984 0.19466 0.96967 0 -0.5 -5.33231 0.015 0 0 -0.346714 0.0353429 
369 1 -0.138958 0.232563 0.983811 0 -0.5 -5.30622 0.015 0 0 -0.346714 0.0353429 
381 1 -0.0827007 0.263114 0.96182 0 -0.5 -5.34673 0.015 0 0 -0.346714 0.0353429 
383 1 -0.0262689 0.250803 0.98536 0 -0.5 -5.30337 0.015 0 0 -0.346714 0.0353429 
308 1 -0.0810902 0.0407534 1.01757 -0.0168546 -0.516386 -5.24217 0.025 0 0 -1.60516 0.163625 
438 1 -0.0987495 0.126333 1.01904 0 -0.5 -5.24068 0.015 0 0 -0.346714 0.0353429 
356 1 -0.111476 0.169564 1.02913 0 -0.5 -5.22175 0.015 0 0 -0.346714 0.0353429 
443 1 -0.0906469 0.224658 1.04563 0 -0.5 -5.19065 0.015 0 0 -0.346714 0.0353429 
340 1 -0.149237 0.297237 1.0284 0 -0.5 -5.22312 0.025 0 0 -1.60516 0.163625 
415 1 -0.127182 0.07813 1.04854 0 -0.5 -5.18516 0.015 0 0 -0.346714 0.0353429 
343 1 -0.140775 0.136899 1.05875 0 -0.5 -5.16583 0.025 0 0 -1.60516 0.163625 
349 1 -0.116564 0.256594 1.06447 0 -0.5 -5.15495 0.025 0 0 -1.60516 0.163625 
351 1 -0.0409452 0.255112 1.07116 0 -0.5 -5.14219 0.015 0 0 -0.346714 0.0353429 
390 1 -0.0988461 0.0385899 1.10249 0 -0.5 -5.08206 0.015 0 0 -0.346714 0.0353429 
448 1 -0.0329565 0.04757 1.13451 0 -0.5 -5.01986 0.015 0 0 -0.346714 0.0353429 
347 1 -0.0548177 0.08489 1.14284 0 -0.5 -5.00358 0.025 0 0 -1.60516 0.163625 
378 1 -0.121409 0.133198 1.15258 0 -0.5 -4.98445 0.015 0 0 -0.346714 0.0353429 
312 1 -0.134707 0.192718 1.15418 0 -0.5 -4.98131 0.025 0 0 -1.60516 0.163625 
359 1 -0.107325 0.237399 1.16491 0 -0.5 -4.96012 0.015 0 0 -0.346714 0.0353429 
417 1 -0.0160313 0.292054 1.15417 0 -0.5 -4.98131 0.015 0 0 -0.346714 0.0353429 
346 1 -0.154431 0.364808 1.14221 -0.0151472 -0.325165 -5.03974 0.025 0 0 -1.60516 0.163625 
419 1 -0.111609 0.0295188 1.17876 0 -0.5 -4.93265 0.015 0 0 -0.346714 0.0353429 
362 1 -0.0154426 0.0796087 1.1746 0 -0.5 -4.94089 0.015 0 0 -0.346714 0.0353429 
303 1 -0.0551599 0.256479 1.17521 0 -0.5 -4.93971 0.025 0 0 -1.60516 0.163625 
334 1 -0.103439 0.292448 1.19053 0 -0.5 -4.9092 0.025 0 0 -1.60516 0.163625 
421 1 -0.0930175 0.109542 1.1993 0 -0.5 -4.89164 0.015 0 0 -0.346714 0.0353429 
325 1 -0.11678 0.151169 1.25271 0.0497405 -0.588401 -4.78992 0.025 0 0 -1.60516 0.163625 
365 1 -0.142321 0.187636 1.25918 -0.198006 -0.434998 -4.67265 0.015 0 0 -0.346714 0.0353429 
320 1 -0.0648735 0.0689287 1.27378 0 -0.5 -4.73988 0.025 0 0 -1.60516 0.163625 
372 1 -0.0702168 0.252237 1.28175 0 -0.5 -4.7234 0.015 0 0 -0.346714 0.0353429 
447 1 -0.122284 0.333789 1.27508 0 -0.5 -4.73724 0.015 0 0 -0.346714 0.0353429 
309 1 -0.144284 0.0680309 1.29653 0 -0.5 -4.6926 0.025 0 0 -1.60516 0.163625 
430 1 -0.123083 0.115393 1.3119 0 -0.5 -4.66032 0.015 0 0 -0.346714 0.0353429 
403 1 -0.0833248 0.121397 1.31643 0 -0.5 -4.65081 0.015 0 0 -0.346714 0.0353429 
387 1 -0.0901615 0.230452 1.3015 0 -0.5 -4.6822 0.015 0 0 -0.346714 0.0353429 
338 1 -0.0583644 0.321556 1.29934 0 -0.5 -4.68671 0.025 0 0 -1.60516 0.163625 
379 1 -0.0327871 0.0703292 1.33831 0 -0.5 -4.60441 0.015 0 0 -0.346714 0.0353429 
393 1 -0.015571 0.292279 1.33283 0 -0.5 -4.61608 0.015 0 0 -0.346714 0.0353429 
357 1 -0.0584785 0.119214 1.37985 0 -0.5 -4.51504 0.015 0 0 -0.346714 0.0353429 
316 1 -0.0983119 0.0541107 1.38922 0 -0.5 -4.49463 0.025 0 0 -1.60516 0.163625 
364 1 -0.0453235 0.0848065 1.40752 0 -0.5 -4.45451 0.015 0 0 -0.346714 0.0353429 
321 1 -0.126579 0.125251 1.40903 0 -0.5 -4.45118 0.025 0 0 -1.60516 0.163625 
333 1 -0.0978849 0.187337 1.4105 0 -0.5 -4.44794 0.025 0 0 -1.60516 0.163625 
380 1 -0.127355 0.229976 1.4002 0 -0.5 -4.4706 0.015 0 0 -0.346714 0.0353429 
301 1 -0.0853601 0.291272 1.39135 0.012148 -0.512208 -4.49001 0.025 0 0 -1.60516 0.163625 
428 1 -0.0387226 0.304002 1.39865 0 -0.5 -4.47403 0.015 0 0 -0.346714 0.0353429 
329 1 -0.126961 0.333226 1.38568 -0.0138001 -0.485947 -4.50242 0.025 0 0 -1.60516 0.163625 
450 1 -0.0322061 0.348898 1.40051 0 -0.5 -4.46991 0.015 0 0 -0.346714 0.0353429 
410 1 -0.145474 0.174536 1.41588 0 -0.5 -4.43607 0.015 0 0 -0.346714 0.0353429 
337 1 -0.142368 0.270838 1.4325 0 -0.5 -4.39918 0.025 0 0 -1.60516 0.163625 
332 1 -0.0814262 0.116266 1.49166 0 -0.5 -4.26518 0.025 0 0 -1.60516 0.163625 
400 1 -0.135353 0.159905 1.49726 0 -0.5 -4.25233 0.015 0 0 -0.346714 0.0353429 
425 1 -0.074083 0.0627868 1.51343 0 -0.5 -4.21485 0.015 0 0 -0.346714 0.0353429 
311 1 -0.0354402 0.0783675 1.52961 0 -0.5 -4.17699 0.025 0 0 -1.60516 0.163625 
317 1 -0.129905 0.202055 1.52435 0 -0.5 -4.18935 0.025 0 0 -1.60516 0.163625 
366 1 -0.144217 0.279022 1.52069 0 -0.5 -4.19788 0.015 0 0 -0.346714 0.0353429 
339 1 -0.0802774 0.32466 1.51262 0 -0.5 -4.21672 0.025 0 0 -1.60516 0.163625 
405 1 -0.038992 0.31339 1.52936 0 -0.5 -4.17757 0.015 0 0 -0.346714 0.0353429 
305 1 -0.0452536 0.361472 1.51342 0 -0.5 -4.21485 0.025 0 0 -1.60516 0.163625 
544 1 -0.0654016 0.444817 1.50633 -0.39021 -0.130746 -4.29829 0.015 0 0 -0.346714 0.0353429 
404 1 -0.119976 0.0838444 1.5467 0 -0.5 -4.13667 0.015 0 0 -0.346714 0.0353429 
345 1 -0.128178 0.126674 1.54147 0 -0.5 -4.14903 0.025 0 0 -1.60516 0.163625 
435 1 -0.0960728 0.163976 1.54737 0 -0.5 -4.1351 0.015 0 0 -0.346714 0.0353429 
675 1 -0.135754 0.337277 1.58411 -0.0349785 -0.349711 -4.13192 0.015 0 0 -0.346714 0.0353429 
444 1 -0.0159467 0.359826 1.57176 0 -0.5 -4.07683 0.015 0 0 -0.346714 0.0353429 
714 1 -0.0240605 0.128326 1.60174 0 -0.5 -4.00404 0.015 0 0 -0.346714 0.0353429 
676 1 -0.132839 0.155867 1.6166 0 -0.5 -3.96744 0.015 0 0 -0.346714 0.0353429 
690 1 -0.0634806 0.326565 1.60748 0 -0.5 -3.98991 0.015 0 0 -0.346714 0.0353429 
634 1 -0.102181 0.348021 1.60945 0 -0.5 -3.9851 0.025 0 0 -1.60516 0.163625 
652 1 -0.0683105 0.160338 1.63042 0 -0.5 -3.93311 0.015 0 0 -0.346714 0.0353429 
629 1 -0.113195 0.207381 1.64141 0 -0.5 -3.90564 0.025 0 0 -1.60516 0.163625 
669 1 -0.0318411 0.337893 1.63366 0 -0.5 -3.92507 0.015 0 0 -0.346714 0.0353429 
608 1 -0.0938106 0.0967933 1.66777 0 -0.5 -3.83884 0.025 0 0 -1.60516 0.163625 
682 1 -0.0469368 0.0927812 1.67524 0 -0.5 -3.81971 0.015 0 0 -0.346714 0.0353429 
657 1 -0.0480729 0.130927 1.68351 0 -0.5 -3.79842 0.015 0 0 -0.346714 0.0353429 
606 1 -0.12254 0.282314 1.67101 0.00210743 -0.508228 -3.82597 0.025 0 0 -1.60516 0.163625 
708 1 -0.0786991 0.321401 1.66949 0 -0.5 -3.83442 0.015 0 0 -0.346714 0.0353429 
701 1 -0.0870486 0.379674 1.67259 0 -0.5 -3.82647 0.015 0 0 -0.346714 0.0353429 
735 1 -0.0832421 0.174669 1.6976 0 -0.5 -3.76183 0.015 0 0 -0.346714 0.0353429 
660 1 -0.0183143 0.334377 1.68665 0 -0.5 -3.79028 0.015 0 0 -0.346714 0.0353429 
618 1 -0.13283 0.141164 1.73557 0 -0.5 -3.66147 0.025 0 0 -1.60516 0.163625 
709 1 -0.101732 0.223531 1.72812 0 -0.5 -3.68138 0.015 0 0 -0.346714 0.0353429 
750 1 -0.0862874 0.288179 1.73737 0 -0.5 -3.65666 0.015 0 0 -0.346714 0.0353429 
707 1 -0.0900659 0.123989 1.74948 0 -0.5 -3.624 0.015 0 0 -0.346714 0.0353429 
640 1 -0.0489559 0.143517 1.77102 0 -0.5 -3.56523 0.025 0 0 -1.60516 0.163625 
680 1 -0.0791761 0.178881 1.76154 0 -0.5 -3.59123 0.015 0 0 -0.346714 0.0353429 
649 1 -0.129761 0.257177 1.75051 0 -0.5 -3.62125 0.025 0 0 -1.60516 0.163625 
616 1 -0.140255 0.349264 1.77166 0 -0.5 -3.56347 0.025 0 0 -1.60516 0.163625 
677 1 -0.113879 0.114303 1.79696 0 -0.5 -3.49313 0.015 0 0 -0.346714 0.0353429 
725 1 -0.0732043 0.351614 1.78868 0 -0.5 -3.51628 0.015 0 0 -0.346714 0.0353429 
712 1 -0.0372677 0.39455 1.78083 0 -0.5 -3.53816 0.015 0 0 -0.346714 0.0353429 
736 1 -0.0864872 0.207793 1.83565 0 -0.5 -3.38277 0.015 0 0 -0.346714 0.0353429 
744 1 -0.107021 0.300725 1.81086 0 -0.5 -3.45389 0.015 0 0 -0.346714 0.0353429 
685 1 -0.0969629 0.347703 1.82806 0 -0.5 -3.40464 0.015 0 0 -0.346714 0.0353429 
610 1 -0.108705 0.147549 1.86832 0 -0.5 -3.28663 0.025 0 0 -1.60516 0.163625 
692 1 -0.0389882 0.16907 1.85701 0 -0.5 -3.32018 0.015 0 0 -0.346714 0.0353429 
625 1 -0.0869741 0.255191 1.86063 0.250947 -0.205125 -3.45605 0.025 0 0 -1.60516 0.163625 
722 1 -0.124711 0.346428 1.85708 0 -0.5 -3.31998 0.015 0 0 -0.346714 0.0353429 
620 1 -0.0294016 0.379755 1.86556 0 -0.5 -3.29487 0.025 0 0 -1.60516 0.163625 
674 1 -0.11657 0.403544 1.85262 0 -0.5 -3.33313 0.015 0 0 -0.346714 0.0353429 
699 1 -0.0856858 0.40542 1.85059 0 -0.5 -3.33911 0.015 0 0 -0.346714 0.0353429 
748 1 -0.0192599 0.136831 1.88363 0 -0.5 -3.24062 0.015 0 0 -0.346714 0.0353429 
636 1 -0.149776 0.322476 1.89499 0 -0.5 -3.20599 0.025 0 0 -1.60516 0.163625 
683 1 -0.0829948 0.348592 1.87236 0 -0.5 -3.27456 0.015 0 0 -0.346714 0.0353429 
732 1 -0.0691875 0.385647 1.87744 0 -0.5 -3.25926 0.015 0 0 -0.346714 0.0353429 
705 1 -0.0946775 0.125279 1.91951 0 -0.5 -3.13006 0.015 0 0 -0.346714 0.0353429 
641 1 -0.145856 0.190252 1.92811 -0.0165282 -0.51578 -3.09427 0.025 0 0 -1.60516 0.163625 
678 1 -0.0973357 0.277233 1.90384 0 -0.5 -3.17882 0.015 0 0 -0.346714 0.0353429 
696 1 -0.058387 0.351843 1.91487 0 -0.5 -3.14458 0.015 0 0 -0.346714 0.0353429 
698 1 -0.111785 0.365616 1.92878 0 -0.5 -3.10093 0.015 0 0 -0.346714 0.0353429 
648 1 -0.130879 0.406847 1.92193 0 -0.5 -3.12251 0.025 0 0 -1.60516 0.163625 
644 1 -0.140738 0.135303 1.95935 0 -0.5 -3.00263 0.025 0 0 -1.60516 0.163625 
730 1 -0.0250727 0.137246 1.94599 0 -0.5 -3.04599 0.015 0 0 -0.346714 0.0353429 
637 1 -0.0618774 0.156817 1.95267 0 -0.5 -3.02441 0.025 0 0 -1.60516 0.163625 
729 1 -0.0894542 0.187908 1.95468 0 -0.5 -3.01784 0.015 0 0 -0.346714 0.0353429 
694 1 -0.138308 0.289231 1.93803 0 -0.5 -3.0715 0.015 0 0 -0.346714 0.0353429 
733 1 -0.0833844 0.322272 1.93884 0 -0.5 -3.06895 0.015 0 0 -0.346714 0.0353429 
639 1 -0.0649329 0.456709 1.95365 0.113569 0.037071 -3.09244 0.025 0 0 -1.60516 0.163625 
724 1 -0.0903421 0.225009 1.96764 0 -0.5 -2.97546 0.015 0 0 -0.346714 0.0353429 
745 1 -0.093142 0.277822 1.96829 0.249023 -0.340208 -3.08078 0.015 0 0 -0.346714 0.0353429 
628 1 -0.0899161 0.345904 1.98217 -0.035052 -0.643145 -2.90631 0.025 0 0 -1.60516 0.163625 
679 1 -0.13837 0.140158 2.02077 0 -0.5 -2.79476 0.015 0 0 -0.346714 0.0353429 
684 1 -0.0877228 0.170489 2.00012 0 -0.5 -2.86637 0.015 0 0 -0.346714 0.0353429 
627 1 -0.145164 0.247487 2.00817 -0.00145318 -0.500708 -2.8381 0.025 0 0 -1.60516 0.163625 
603 1 -0.121744 0.304127 2.015 0 -0.5 -2.81497 0.025 0 0 -1.60516 0.163625 
635 1 -0.142362 0.43294 2.02106 0 -0.5 -2.79378 0.025 0 0 -1.60516 0.163625 