ITEM: TIMESTEP
23200
ITEM: NUMBER OF ATOMS
300
ITEM: BOX BOUNDS mm mm mm
-1 1
-1 1
-0.05 2.85
ITEM: ATOMS id type x y z vx vy vz radius fx fy fz mass 
68 1 -0.0997213 0.129271 1.52502 0 -0.5 -4.18778 0.015 0 0 -0.346714 0.0353429 
137 1 -0.087338 0.173938 1.53531 -0.00924354 -0.479856 -4.16492 0.015 0 0 -0.346714 0.0353429 
33 1 -0.129286 0.320605 1.54197 0 -0.5 -4.14785 0.025 0 0 -1.60516 0.163625 
45 1 -0.0943793 0.0802376 1.54657 0 -0.5 -4.13696 0.025 0 0 -1.60516 0.163625 
119 1 -0.0370509 0.0691886 1.56874 0 -0.5 -4.08409 0.015 0 0 -0.346714 0.0353429 
122 1 -0.0711309 0.139085 1.54678 0.00811842 -0.517403 -4.13534 0.015 0 0 -0.346714 0.0353429 
43 1 -0.116198 0.231785 1.56247 0 -0.5 -4.09909 0.025 0 0 -1.60516 0.163625 
111 1 -0.0487783 0.3641 1.56292 0 -0.5 -4.09802 0.015 0 0 -0.346714 0.0353429 
75 1 -0.0493142 0.119672 1.5817 0 -0.5 -4.05279 0.015 0 0 -0.346714 0.0353429 
89 1 -0.129145 0.148308 1.58649 0 -0.5 -4.04122 0.015 0 0 -0.346714 0.0353429 
59 1 -0.0865612 0.276868 1.59704 0 -0.5 -4.01551 0.015 0 0 -0.346714 0.0353429 
78 1 -0.0422369 0.327955 1.57456 0 -0.5 -4.07006 0.015 0 0 -0.346714 0.0353429 
116 1 -0.0253297 0.20049 1.60451 0.36535 -0.287166 -4.126 0.015 0 0 -0.346714 0.0353429 
92 1 -0.131017 0.371327 1.60818 0 -0.5 -3.98824 0.015 0 0 -0.346714 0.0353429 
8 1 -0.104188 0.087463 1.66122 0 -0.5 -3.85551 0.025 0 0 -1.60516 0.163625 
26 1 -0.0877226 0.175886 1.64733 0.14857 -0.341553 -3.95729 0.025 0 0 -1.60516 0.163625 
98 1 -0.147127 0.220442 1.649 0 -0.5 -3.88651 0.015 0 0 -0.346714 0.0353429 
151 1 -0.0686397 0.302527 1.64858 0 -0.5 -3.88759 0.015 0 0 -0.346714 0.0353429 
100 1 -0.0681017 0.155921 1.69022 0 -0.5 -3.78105 0.015 0 0 -0.346714 0.0353429 
140 1 -0.125739 0.197556 1.68677 0 -0.5 -3.78998 0.015 0 0 -0.346714 0.0353429 
3 1 -0.141317 0.285388 1.66682 0 -0.5 -3.84129 0.025 0 0 -1.60516 0.163625 
72 1 -0.105673 0.322796 1.67642 0 -0.5 -3.81666 0.015 0 0 -0.346714 0.0353429 
118 1 -0.0372647 0.357681 1.69384 0 -0.5 -3.77164 0.015 0 0 -0.346714 0.0353429 
40 1 -0.104474 0.374198 1.68756 0 -0.5 -3.78792 0.025 0 0 -1.60516 0.163625 
51 1 -0.153238 0.117348 1.72038 -0.0265052 -0.519812 -3.69207 0.025 0 0 -1.60516 0.163625 
117 1 -0.0596227 0.0990208 1.70443 0 -0.5 -3.74397 0.015 0 0 -0.346714 0.0353429 
148 1 -0.134864 0.213671 1.73743 -0.171679 -0.397353 -3.79331 0.015 0 0 -0.346714 0.0353429 
90 1 -0.146535 0.375667 1.74433 0 -0.5 -3.63793 0.015 0 0 -0.346714 0.0353429 
60 1 -0.0770515 0.107928 1.75772 0 -0.5 -3.60163 0.015 0 0 -0.346714 0.0353429 
105 1 -0.129058 0.233403 1.78294 -0.321192 -0.368687 -3.5145 0.015 0 0 -0.346714 0.0353429 
11 1 -0.104023 0.259106 1.75818 0.022917 -0.457889 -3.63079 0.025 0 0 -1.60516 0.163625 
50 1 -0.130982 0.332355 1.7587 0 -0.5 -3.59898 0.025 0 0 -1.60516 0.163625 
74 1 -0.0790012 0.319893 1.78058 0 -0.5 -3.53885 0.015 0 0 -0.346714 0.0353429 
44 1 -0.125916 0.0995965 1.79706 0 -0.5 -3.49284 0.025 0 0 -1.60516 0.163625 
36 1 -0.103411 0.146312 1.81033 0 -0.5 -3.45536 0.025 0 0 -1.60516 0.163625 
29 1 -0.0788351 0.362182 1.80662 0 -0.5 -3.46586 0.025 0 0 -1.60516 0.163625 
76 1 -0.0202065 0.34807 1.79048 0 -0.5 -3.51128 0.015 0 0 -0.346714 0.0353429 
114 1 -0.0719465 0.176389 1.83211 -0.00040144 -0.499666 -3.39315 0.015 0 0 -0.346714 0.0353429 
54 1 -0.138983 0.187152 1.82024 -0.0956439 -0.529683 -3.40406 0.015 0 0 -0.346714 0.0353429 
113 1 -0.118506 0.397198 1.84661 0 -0.5 -3.35079 0.015 0 0 -0.346714 0.0353429 
146 1 -0.109965 0.112916 1.86396 0 -0.5 -3.29958 0.015 0 0 -0.346714 0.0353429 
73 1 -0.0639552 0.125767 1.85047 0 -0.5 -3.33951 0.015 0 0 -0.346714 0.0353429 
2 1 -0.110349 0.273071 1.85392 0 -0.5 -3.3293 0.025 0 0 -1.60516 0.163625 
88 1 -0.0666498 0.339919 1.87367 0 -0.5 -3.27064 0.015 0 0 -0.346714 0.0353429 
12 1 -0.0363281 0.382336 1.86305 0 -0.5 -3.30233 0.025 0 0 -1.60516 0.163625 
99 1 -0.146283 0.177517 1.88783 0 -0.5 -3.22787 0.015 0 0 -0.346714 0.0353429 
57 1 -0.120673 0.229061 1.88021 0 -0.5 -3.25092 0.015 0 0 -0.346714 0.0353429 
34 1 -0.138562 0.346511 1.90531 0 -0.5 -3.17431 0.025 0 0 -1.60516 0.163625 
24 1 -0.138394 0.147452 1.93625 0 -0.5 -3.07719 0.025 0 0 -1.60516 0.163625 
67 1 -0.0183057 0.120389 1.92873 0 -0.5 -3.10103 0.015 0 0 -0.346714 0.0353429 
66 1 -0.0281121 0.164823 1.9133 0 -0.5 -3.14949 0.015 0 0 -0.346714 0.0353429 
83 1 -0.108229 0.207146 1.9087 0 -0.5 -3.16381 0.015 0 0 -0.346714 0.0353429 
19 1 -0.0715757 0.187252 1.91093 0 -0.5 -3.15684 0.025 0 0 -1.60516 0.163625 
10 1 -0.0907863 0.306566 1.91625 0.0800593 -0.36273 -3.27475 0.025 0 0 -1.60516 0.163625 
81 1 -0.051385 0.347999 1.91556 0 -0.5 -3.14242 0.015 0 0 -0.346714 0.0353429 
71 1 -0.145263 0.390198 1.91825 0 -0.5 -3.13409 0.015 0 0 -0.346714 0.0353429 
70 1 -0.107191 0.173924 1.96569 0 -0.5 -2.98183 0.015 0 0 -0.346714 0.0353429 
103 1 -0.135939 0.191722 1.95842 0 -0.5 -3.00567 0.015 0 0 -0.346714 0.0353429 
133 1 -0.127566 0.263944 1.94153 0 -0.5 -3.06031 0.015 0 0 -0.346714 0.0353429 
95 1 -0.10482 0.351312 1.94363 0 -0.5 -3.05354 0.015 0 0 -0.346714 0.0353429 
143 1 -0.11631 0.409682 1.96361 0 -0.5 -2.9887 0.015 0 0 -0.346714 0.0353429 
39 1 -0.0696793 0.40101 1.9437 0 -0.5 -3.05335 0.025 0 0 -1.60516 0.163625 
28 1 -0.0685748 0.15007 1.98052 0 -0.5 -2.93269 0.025 0 0 -1.60516 0.163625 
97 1 -0.0338223 0.177144 1.97522 0 -0.5 -2.95034 0.015 0 0 -0.346714 0.0353429 
115 1 -0.076478 0.212431 1.97546 0 -0.5 -2.94956 0.015 0 0 -0.346714 0.0353429 
126 1 -0.1139 0.270939 1.98695 -0.0288748 -0.539424 -2.86819 0.015 0 0 -0.346714 0.0353429 
85 1 -0.13789 0.334015 1.97687 0 -0.5 -2.94485 0.015 0 0 -0.346714 0.0353429 
134 1 -0.137197 0.374367 1.98626 0 -0.5 -2.91336 0.015 0 0 -0.346714 0.0353429 
120 1 -0.148569 0.423261 1.99153 0 -0.5 -2.8956 0.015 0 0 -0.346714 0.0353429 
77 1 -0.0297287 0.402749 1.99036 0 -0.5 -2.89953 0.015 0 0 -0.346714 0.0353429 
96 1 -0.131998 0.177081 2.00158 0 -0.5 -2.86137 0.015 0 0 -0.346714 0.0353429 
38 1 -0.121616 0.218188 2.0132 0 -0.5 -2.82124 0.025 0 0 -1.60516 0.163625 
31 1 -0.140814 0.154877 2.05468 0 -0.5 -2.67311 0.025 0 0 -1.60516 0.163625 
150 1 -0.100106 0.189207 2.04683 0 -0.5 -2.70176 0.015 0 0 -0.346714 0.0353429 
130 1 -0.0642546 0.212441 2.03454 0 -0.5 -2.746 0.015 0 0 -0.346714 0.0353429 
23 1 -0.134189 0.354519 2.03405 0 -0.5 -2.74777 0.025 0 0 -1.60516 0.163625 
18 1 -0.106015 0.419686 2.0475 0 -0.5 -2.69931 0.025 0 0 -1.60516 0.163625 
4 1 -0.0330873 0.432857 2.04708 0 -0.5 -2.70088 0.025 0 0 -1.60516 0.163625 
110 1 -0.0868918 0.144417 2.06868 0 -0.5 -2.62122 0.015 0 0 -0.346714 0.0353429 
93 1 -0.0244706 0.156158 2.0757 0 -0.5 -2.59483 0.015 0 0 -0.346714 0.0353429 
17 1 -0.134634 0.270027 2.07922 0 -0.5 -2.58149 0.025 0 0 -1.60516 0.163625 
136 1 -0.0832352 0.363008 2.07751 0 -0.5 -2.58796 0.015 0 0 -0.346714 0.0353429 
30 1 -0.0481876 0.390857 2.08156 0 -0.5 -2.57256 0.025 0 0 -1.60516 0.163625 
109 1 -0.0676248 0.43808 2.08101 0 -0.5 -2.57462 0.015 0 0 -0.346714 0.0353429 
108 1 -0.089121 0.176824 2.10246 0 -0.5 -2.49163 0.015 0 0 -0.346714 0.0353429 
69 1 -0.020474 0.197083 2.11344 0 -0.5 -2.44797 0.015 0 0 -0.346714 0.0353429 
35 1 -0.146938 0.370792 2.11668 0 -0.5 -2.43493 0.025 0 0 -1.60516 0.163625 
106 1 -0.106702 0.433999 2.09939 -0.0998962 -0.230395 -2.78185 0.015 0 0 -0.346714 0.0353429 
102 1 -0.11709 0.176899 2.13161 0 -0.5 -2.3741 0.015 0 0 -0.346714 0.0353429 
14 1 -0.0571303 0.168975 2.13673 0 -0.5 -2.35282 0.025 0 0 -1.60516 0.163625 
139 1 -0.104092 0.234572 2.13152 0 -0.5 -2.3744 0.015 0 0 -0.346714 0.0353429 
144 1 -0.0691235 0.237474 2.13108 0 -0.5 -2.37626 0.015 0 0 -0.346714 0.0353429 
141 1 -0.136875 0.250264 2.14367 0 -0.5 -2.32368 0.015 0 0 -0.346714 0.0353429 
22 1 -0.102489 0.302306 2.1291 0 -0.5 -2.3844 0.025 0 0 -1.60516 0.163625 
55 1 -0.0959973 0.408393 2.13895 -7.52477e-06 -0.49998 -2.34353 0.015 0 0 -0.346714 0.0353429 
1 1 -0.14276 0.453167 2.14764 -0.021394 -0.0706631 -2.64681 0.025 0 0 -1.60516 0.163625 
21 1 -0.0470047 0.4535 2.15045 0 -0.5 -2.29484 0.025 0 0 -1.60516 0.163625 
107 1 -0.141609 0.165948 2.16931 0 -0.5 -2.21283 0.015 0 0 -0.346714 0.0353429 
112 1 -0.073338 0.249279 2.181 0 -0.5 -2.16034 0.015 0 0 -0.346714 0.0353429 
94 1 -0.127866 0.289335 2.17615 0 -0.5 -2.18232 0.015 0 0 -0.346714 0.0353429 
84 1 -0.116406 0.329786 2.17947 0 -0.5 -2.16731 0.015 0 0 -0.346714 0.0353429 
87 1 -0.113676 0.371588 2.15728 0 -0.5 -2.26551 0.015 0 0 -0.346714 0.0353429 
147 1 -0.100309 0.441431 2.17642 0 -0.5 -2.18104 0.015 0 0 -0.346714 0.0353429 
32 1 -0.149701 0.184491 2.21065 -0.054513 -0.536427 -2.01375 0.025 -2.0142 -1.33868 -1.32788 0.163625 
142 1 -0.0724928 0.190748 2.19054 0 -0.5 -2.11659 0.015 0 0 -0.346714 0.0353429 
6 1 -0.109249 0.212174 2.20262 0.0946459 -0.432685 -2.07486 0.025 2.0142 1.33868 -1.88243 0.163625 
135 1 -0.140472 0.258893 2.21074 0 -0.5 -2.02075 0.015 0 0 -0.346714 0.0353429 
149 1 -0.10693 0.255114 2.18807 0.0426048 0.357496 -2.35069 0.015 0 0 -0.346714 0.0353429 
15 1 -0.0916636 0.305929 2.20455 0 -0.5 -2.05057 0.025 0 0 -1.60516 0.163625 
80 1 -0.102893 0.376893 2.19835 0 -0.5 -2.0801 0.015 0 0 -0.346714 0.0353429 
47 1 -0.140465 0.41345 2.19058 0 -0.5 -2.1164 0.025 0 0 -1.60516 0.163625 
145 1 -0.0934491 0.406113 2.19148 0 -0.5 -2.11228 0.015 0 0 -0.346714 0.0353429 
62 1 -0.0849655 0.466406 2.21063 0 -0.5 -2.02134 0.015 0 0 -0.346714 0.0353429 
138 1 -0.0317395 0.192376 2.21876 -0 0 -2 0.015 0 0 0 0.0353429 
128 1 -0.145291 0.342562 2.21947 -0 0 -2 0.015 0 0 0 0.0353429 
121 1 -0.0679495 0.444838 2.22797 -0 0 -2 0.015 0 0 0 0.0353429 
61 1 -0.0231802 0.176945 2.25497 -0 0 -2 0.015 0 0 0 0.0353429 
52 1 -0.100497 0.1916 2.25856 -0 0 -2 0.015 0 0 0 0.0353429 
129 1 -0.0553418 0.210019 2.24372 -0 0 -2 0.015 0 0 0 0.0353429 
79 1 -0.0179342 0.210984 2.255 -0 0 -2 0.015 0 0 0 0.0353429 
5 1 -0.137704 0.218352 2.26325 -0 0 -2 0.025 0 0 0 0.163625 
7 1 -0.0712578 0.257024 2.26471 -0 0 -2 0.025 0 0 0 0.163625 
13 1 -0.146779 0.291061 2.25006 -0 0 -2 0.025 0 0 0 0.163625 
101 1 -0.102489 0.301504 2.24829 -0 0 -2 0.015 0 0 0 0.0353429 
20 1 -0.124339 0.346193 2.2618 -0 0 -2 0.025 0 0 0 0.163625 
91 1 -0.124131 0.396082 2.25521 -0 0 -2 0.015 0 0 0 0.0353429 
37 1 -0.0716655 0.404405 2.24805 -0 0 -2 0.025 0 0 0 0.163625 
46 1 -0.032303 0.465744 2.25031 -0 0 -2 0.025 0 0 0 0.163625 
65 1 -0.147981 0.187337 2.29404 -0 0 -2 0.015 0 0 0 0.0353429 
58 1 -0.0969698 0.285666 2.28791 -0 0 -2 0.015 0 0 0 0.0353429 
86 1 -0.142939 0.382764 2.28019 -0 0 -2 0.015 0 0 0 0.0353429 
124 1 -0.136447 0.411167 2.28785 -0 0 -2 0.015 0 0 0 0.0353429 
9 1 -0.0320364 0.416484 2.28171 -0 0 -2 0.025 0 0 0 0.163625 
41 1 -0.107908 0.465288 2.29289 -0 0 -2 0.025 0 0 0 0.163625 
49 1 -0.0613084 0.18937 2.32836 -0 0 -2 0.025 0 0 0 0.163625 
132 1 -0.0234712 0.214078 2.31938 -0 0 -2 0.015 0 0 0 0.0353429 
48 1 -0.144727 0.271852 2.31901 -0 0 -2 0.025 0 0 0 0.163625 
53 1 -0.106432 0.3161 2.31998 -0 0 -2 0.015 0 0 0 0.0353429 
104 1 -0.138444 0.347252 2.31086 -0 0 -2 0.015 0 0 0 0.0353429 
16 1 -0.129915 0.412384 2.3298 -0 0 -2 0.025 0 0 0 0.163625 
82 1 -0.0851821 0.402207 2.33269 -0 0 -2 0.015 0 0 0 0.0353429 
27 1 -0.0637137 0.439115 2.33009 -0 0 -2 0.025 0 0 0 0.163625 
131 1 -0.025873 0.449155 2.30654 -0 0 -2 0.015 0 0 0 0.0353429 
25 1 -0.104447 0.217985 2.35021 -0 0 -2 0.025 0 0 0 0.163625 
127 1 -0.0304133 0.231126 2.34499 -0 0 -2 0.015 0 0 0 0.0353429 
42 1 -0.132916 0.309326 2.35688 -0 0 -2 0.025 0 0 0 0.163625 
123 1 -0.11925 0.365597 2.35858 -0 0 -2 0.015 0 0 0 0.0353429 
63 1 -0.147823 0.467223 2.33696 -0 0 -2 0.015 0 0 0 0.0353429 
56 1 -0.11556 0.462639 2.34492 -0 0 -2 0.015 0 0 0 0.0353429 
125 1 -0.0960051 0.419402 2.36592 -0 0 -2 0.015 0 0 0 0.0353429 
64 1 -0.145219 0.427667 2.36504 -0 0 -2 0.015 0 0 0 0.0353429 
289 1 0.0963669 0.262856 1.44779 0.0203384 -0.134604 -4.56607 0.015 0 0 -0.346714 0.0353429 
284 1 0.073958 0.0893521 1.52405 -0.0310215 -0.613333 -4.26079 0.015 0 0 -0.346714 0.0353429 
272 1 0.0168276 0.341548 1.54095 0 -0.5 -4.1503 0.015 0 0 -0.346714 0.0353429 
203 1 0.0667127 0.0672328 1.54464 0 -0.5 -4.14157 0.015 0 0 -0.346714 0.0353429 
206 1 0.0921374 0.115287 1.54896 0.057048 -0.582454 -4.18525 0.015 0 0 -0.346714 0.0353429 
259 1 0.149131 0.107826 1.56514 0 -0.5 -4.09272 0.015 0 0 -0.346714 0.0353429 
237 1 0.119682 0.129347 1.55985 0.0724848 -0.475593 -4.09025 0.015 0 0 -0.346714 0.0353429 
199 1 0.090239 0.197709 1.55286 -0.00278668 -0.321029 -4.23773 0.025 0 0 -1.60516 0.163625 
171 1 0.0955264 0.269107 1.56461 0 -0.5 -4.09399 0.025 0 0 -1.60516 0.163625 
214 1 0.144386 0.253733 1.55231 0 -0.5 -4.12333 0.015 0 0 -0.346714 0.0353429 
213 1 0.0350777 0.30657 1.54475 0 -0.5 -4.14128 0.015 0 0 -0.346714 0.0353429 
226 1 0.110692 0.315304 1.56064 0 -0.5 -4.10351 0.015 0 0 -0.346714 0.0353429 
241 1 0.0849537 0.337018 1.55599 0 -0.5 -4.11459 0.015 0 0 -0.346714 0.0353429 
220 1 0.0263529 0.0906476 1.5962 -0.0669262 -0.554313 -4.00755 0.015 0 0 -0.346714 0.0353429 
263 1 0.025742 0.128494 1.57468 0 -0.5 -4.06976 0.015 0 0 -0.346714 0.0353429 
177 1 0.144518 0.226667 1.59725 0.112606 -0.398162 -4.02256 0.025 0 0 -1.60516 0.163625 
290 1 0.144476 0.272312 1.6232 0.0439512 -0.299137 -3.8962 0.015 0 0 -0.346714 0.0353429 
166 1 0.0609489 0.371253 1.62933 0 -0.5 -3.93586 0.025 0 0 -1.60516 0.163625 
184 1 0.11251 0.369841 1.62455 0 -0.5 -3.94773 0.025 0 0 -1.60516 0.163625 
270 1 0.0946744 0.299669 1.65272 0 -0.5 -3.87709 0.015 0 0 -0.346714 0.0353429 
249 1 0.0491797 0.307421 1.64249 0 -0.5 -3.90289 0.015 0 0 -0.346714 0.0353429 
294 1 0.128315 0.332152 1.66485 0 -0.5 -3.84629 0.015 0 0 -0.346714 0.0353429 
216 1 0.0839444 0.117569 1.67067 0.0481324 -0.610657 -3.79993 0.015 0 0 -0.346714 0.0353429 
222 1 0.123753 0.109661 1.66807 0 -0.5 -3.83805 0.015 0 0 -0.346714 0.0353429 
170 1 0.160521 0.280244 1.68736 0.161731 -0.381986 -3.80963 0.025 0 0 -1.60516 0.163625 
231 1 0.0350342 0.32962 1.69528 0 -0.5 -3.76791 0.015 0 0 -0.346714 0.0353429 
180 1 0.0415428 0.125871 1.6966 -0.021889 -0.504465 -3.75534 0.025 0 0 -1.60516 0.163625 
282 1 0.0543883 0.207723 1.71974 -0.2609 -0.673185 -3.67189 0.015 0 0 -0.346714 0.0353429 
253 1 0.123075 0.217069 1.6996 0 -0.5 -3.75663 0.015 0 0 -0.346714 0.0353429 
169 1 0.0892107 0.338668 1.71221 0 -0.5 -3.72357 0.025 0 0 -1.60516 0.163625 
209 1 0.0969746 0.105248 1.73389 0 -0.5 -3.66598 0.015 0 0 -0.346714 0.0353429 
278 1 0.113612 0.239965 1.75938 0 -0.5 -3.59712 0.015 0 0 -0.346714 0.0353429 
296 1 0.146983 0.221001 1.76075 0 -0.5 -3.59339 0.015 0 0 -0.346714 0.0353429 
162 1 0.0478022 0.342457 1.78362 0 -0.5 -3.53041 0.025 0 0 -1.60516 0.163625 
257 1 0.139837 0.352641 1.75975 0 -0.5 -3.59614 0.015 0 0 -0.346714 0.0353429 
235 1 0.134937 0.108385 1.79839 0 -0.5 -3.48911 0.015 0 0 -0.346714 0.0353429 
168 1 0.0261487 0.142104 1.7895 0 -0.5 -3.51403 0.025 0 0 -1.60516 0.163625 
269 1 0.141487 0.137504 1.78739 0 -0.5 -3.51991 0.015 0 0 -0.346714 0.0353429 
185 1 0.0936576 0.186666 1.80345 0 -0.5 -3.47488 0.025 0 0 -1.60516 0.163625 
217 1 0.133752 0.187691 1.79727 0 -0.5 -3.49225 0.015 0 0 -0.346714 0.0353429 
182 1 0.114565 0.297779 1.79448 0 -0.5 -3.5001 0.025 0 0 -1.60516 0.163625 
286 1 0.147755 0.38687 1.7965 0 -0.5 -3.49441 0.015 0 0 -0.346714 0.0353429 
176 1 0.0399362 0.394472 1.79734 0 -0.5 -3.49205 0.025 0 0 -1.60516 0.163625 
153 1 0.0895866 0.10276 1.82165 0 -0.5 -3.42309 0.025 0 0 -1.60516 0.163625 
211 1 0.0694768 0.160972 1.83598 0 -0.5 -3.38179 0.015 0 0 -0.346714 0.0353429 
251 1 0.126174 0.255559 1.83106 0 -0.5 -3.39601 0.015 0 0 -0.346714 0.0353429 
291 1 0.140432 0.331523 1.84677 0 -0.5 -3.3503 0.015 0 0 -0.346714 0.0353429 
204 1 0.134881 0.149248 1.86443 0 -0.5 -3.29821 0.015 0 0 -0.346714 0.0353429 
161 1 0.135356 0.20685 1.86368 0 -0.5 -3.30046 0.025 0 0 -1.60516 0.163625 
230 1 0.118982 0.247372 1.87641 0 -0.5 -3.2624 0.015 0 0 -0.346714 0.0353429 
228 1 0.0279693 0.356593 1.86947 0 -0.5 -3.2832 0.015 0 0 -0.346714 0.0353429 
159 1 0.087245 0.390208 1.84775 0 -0.5 -3.34745 0.025 0 0 -1.60516 0.163625 
300 1 0.149285 0.38424 1.85709 0 -0.5 -3.31998 0.015 0 0 -0.346714 0.0353429 
175 1 0.0941494 0.142059 1.89047 0 -0.5 -3.21982 0.025 0 0 -1.60516 0.163625 
192 1 0.134392 0.305049 1.90778 0 -0.5 -3.16665 0.025 0 0 -1.60516 0.163625 
256 1 0.0868225 0.374057 1.90504 0 -0.5 -3.17509 0.015 0 0 -0.346714 0.0353429 
250 1 0.138716 0.388193 1.90314 0 -0.5 -3.18098 0.015 0 0 -0.346714 0.0353429 
299 1 0.0153001 0.165541 1.92039 0 -0.5 -3.12732 0.015 0 0 -0.346714 0.0353429 
293 1 0.0548164 0.181145 1.91469 0 -0.5 -3.14517 0.015 0 0 -0.346714 0.0353429 
200 1 0.112803 0.198149 1.93216 0 -0.5 -3.09023 0.025 0 0 -1.60516 0.163625 
255 1 0.0340792 0.356865 1.93661 0 -0.5 -3.07601 0.015 0 0 -0.346714 0.0353429 
285 1 0.0870748 0.342259 1.90898 0 -0.5 -3.16293 0.015 0 0 -0.346714 0.0353429 
275 1 0.0211058 0.388962 1.91914 0 -0.5 -3.13124 0.015 0 0 -0.346714 0.0353429 
252 1 0.131256 0.365424 1.93662 0 -0.5 -3.07601 0.015 0 0 -0.346714 0.0353429 
246 1 0.0494565 0.40901 1.90952 0 -0.5 -3.16126 0.015 0 0 -0.346714 0.0353429 
240 1 0.0956629 0.40588 1.91122 0 -0.5 -3.15596 0.015 0 0 -0.346714 0.0353429 
189 1 0.0509787 0.139512 1.96618 0 -0.5 -2.98026 0.025 0 0 -1.60516 0.163625 
202 1 0.126943 0.140119 1.94128 0 -0.5 -3.0611 0.015 0 0 -0.346714 0.0353429 
245 1 0.0868358 0.165715 1.94902 0 -0.5 -3.03618 0.015 0 0 -0.346714 0.0353429 
247 1 0.0532922 0.193565 1.96151 0 -0.5 -2.99557 0.015 0 0 -0.346714 0.0353429 
287 1 0.130384 0.13035 1.98676 0 -0.5 -2.91169 0.015 0 0 -0.346714 0.0353429 
288 1 0.0326968 0.175446 1.99408 0 -0.5 -2.88697 0.015 0 0 -0.346714 0.0353429 
154 1 0.116388 0.285122 1.97486 0 -0.5 -2.95152 0.025 0 0 -1.60516 0.163625 
295 1 0.103955 0.344828 1.99628 0 -0.5 -2.87942 0.015 0 0 -0.346714 0.0353429 
156 1 0.0411221 0.393187 1.99806 0 -0.5 -2.87343 0.025 0 0 -1.60516 0.163625 
190 1 0.11779 0.398732 1.98165 0 -0.5 -2.92886 0.025 0 0 -1.60516 0.163625 
210 1 0.0872868 0.137386 2.01617 0 -0.5 -2.81085 0.015 0 0 -0.346714 0.0353429 
181 1 0.070397 0.176344 2.02157 0 -0.5 -2.79201 0.025 0 0 -1.60516 0.163625 
165 1 0.148355 0.228191 2.01362 0 -0.5 -2.81977 0.025 0 0 -1.60516 0.163625 
233 1 0.0406697 0.155292 2.05079 0 -0.5 -2.68734 0.015 0 0 -0.346714 0.0353429 
260 1 0.0198171 0.18512 2.04159 0 -0.5 -2.72069 0.015 0 0 -0.346714 0.0353429 
152 1 0.089118 0.243144 2.03674 0 -0.5 -2.73815 0.025 0 0 -1.60516 0.163625 
279 1 0.11959 0.303322 2.04307 0 -0.5 -2.71539 0.015 0 0 -0.346714 0.0353429 
262 1 0.0888361 0.337008 2.04736 0 -0.5 -2.6998 0.015 0 0 -0.346714 0.0353429 
207 1 0.128901 0.354384 2.05985 0 -0.5 -2.65408 0.015 0 0 -0.346714 0.0353429 
234 1 0.0945525 0.386871 2.04382 0 -0.5 -2.71265 0.015 0 0 -0.346714 0.0353429 
208 1 0.0680799 0.423251 2.04832 0 -0.5 -2.69636 0.015 0 0 -0.346714 0.0353429 
194 1 0.131621 0.414036 2.05786 0 -0.5 -2.66144 0.025 0 0 -1.60516 0.163625 
212 1 0.0737637 0.168983 2.08901 0 -0.5 -2.54401 0.015 0 0 -0.346714 0.0353429 
236 1 0.111584 0.182462 2.08903 0 -0.5 -2.54392 0.015 0 0 -0.346714 0.0353429 
223 1 0.0343911 0.436571 2.07025 0 -0.5 -2.61533 0.015 0 0 -0.346714 0.0353429 
178 1 0.0370442 0.153146 2.11075 0 -0.5 -2.45876 0.025 0 0 -1.60516 0.163625 
224 1 0.132465 0.211362 2.11083 0 -0.5 -2.45837 0.015 0 0 -0.346714 0.0353429 
221 1 0.0987988 0.248271 2.11657 0 -0.5 -2.43542 0.015 0 0 -0.346714 0.0353429 
242 1 0.131055 0.260908 2.10195 0 -0.5 -2.49359 0.015 0 0 -0.346714 0.0353429 
191 1 0.0609008 0.383599 2.09148 0 -0.5 -2.5345 0.025 0 0 -1.60516 0.163625 
258 1 0.135516 0.164979 2.13485 0 -0.5 -2.36066 0.015 0 0 -0.346714 0.0353429 
187 1 0.0681893 0.21889 2.14427 0 -0.5 -2.32113 0.025 0 0 -1.60516 0.163625 
179 1 0.136485 0.314915 2.12994 0 -0.5 -2.38097 0.025 0 0 -1.60516 0.163625 
248 1 0.0851139 0.353859 2.13848 0 -0.5 -2.34546 0.015 0 0 -0.346714 0.0353429 
157 1 0.115469 0.403407 2.14655 0 -0.5 -2.31152 0.025 0 0 -1.60516 0.163625 
264 1 0.0357265 0.447028 2.13978 0 -0.5 -2.34006 0.015 0 0 -0.346714 0.0353429 
277 1 0.0674794 0.440305 2.14765 0 -0.5 -2.30681 0.015 0 0 -0.346714 0.0353429 
205 1 0.0941484 0.164831 2.16512 0 -0.5 -2.23127 0.015 0 0 -0.346714 0.0353429 
227 1 0.137271 0.176175 2.17119 0 -0.5 -2.20449 0.015 0 0 -0.346714 0.0353429 
276 1 0.0937292 0.202975 2.18009 0 -0.5 -2.16446 0.015 0 0 -0.346714 0.0353429 
232 1 0.13999 0.238569 2.16006 0 -0.5 -2.25344 0.015 0 0 -0.346714 0.0353429 
172 1 0.130481 0.3566 2.17843 0.205506 -0.272617 -2.43532 0.025 0 0 -1.60516 0.163625 
174 1 0.030822 0.410563 2.1606 0 -0.5 -2.25109 0.025 0 0 -1.60516 0.163625 
201 1 0.0267726 0.17944 2.1865 0 -0.5 -2.13523 0.025 0 0 -1.60516 0.163625 
265 1 0.115746 0.202087 2.20468 0 -0.5 -2.04998 0.015 0 0 -0.346714 0.0353429 
225 1 0.0772421 0.22611 2.20279 0 -0.5 -2.05901 0.015 0 0 -0.346714 0.0353429 
158 1 0.0866624 0.269056 2.18576 0 -0.5 -2.13866 0.025 0 0 -1.60516 0.163625 
271 1 0.0988639 0.309861 2.20973 -0.00748441 -0.520645 -2.02599 0.015 -0.0225131 -0.0636977 -0.345094 0.0353429 
254 1 0.137401 0.316737 2.19173 -1.31397e-05 -0.499936 -2.11112 0.015 0 0 -0.346714 0.0353429 
274 1 0.108651 0.33817 2.20906 0.00836726 -0.476314 -2.02871 0.015 0.0225131 0.0636977 -0.348334 0.0353429 
283 1 0.102888 0.438132 2.19915 0 -0.5 -2.07627 0.015 0 0 -0.346714 0.0353429 
173 1 0.0548933 0.460549 2.20266 0 -0.5 -2.0596 0.025 0 0 -1.60516 0.163625 
229 1 0.102013 0.176876 2.221 -0 0 -2 0.015 0 0 0 0.0353429 
196 1 0.0520917 0.20732 2.23078 -0 0 -2 0.025 0 0 0 0.163625 
163 1 0.107222 0.236676 2.23643 -0 0 -2 0.025 0 0 0 0.163625 
155 1 0.141768 0.302505 2.23715 -0 0 -2 0.025 0 0 0 0.163625 
183 1 0.0737852 0.400476 2.21343 0 -0.5 -2.0077 0.025 0 0 -1.60516 0.163625 
281 1 0.0312292 0.432852 2.22663 -0 0 -2 0.015 0 0 0 0.0353429 
188 1 0.140755 0.442261 2.23241 -0 0 -2 0.025 0 0 0 0.163625 
218 1 0.0164873 0.217058 2.27237 -0 0 -2 0.015 0 0 0 0.0353429 
298 1 0.114914 0.351461 2.26445 -0 0 -2 0.015 0 0 0 0.0353429 
268 1 0.140569 0.388665 2.24604 -0 0 -2 0.015 0 0 0 0.0353429 
197 1 0.0581936 0.42558 2.26416 -0 0 -2 0.025 0 0 0 0.163625 
280 1 0.0367193 0.456786 2.24777 -0 0 -2 0.015 0 0 0 0.0353429 
273 1 0.0779061 0.461373 2.26584 -0 0 -2 0.015 0 0 0 0.0353429 
267 1 0.101401 0.464343 2.24538 -0 0 -2 0.015 0 0 0 0.0353429 
160 1 0.118533 0.219824 2.30238 -0 0 -2 0.025 0 0 0 0.163625 
238 1 0.105443 0.363301 2.29241 -0 0 -2 0.015 0 0 0 0.0353429 
195 1 0.147227 0.360394 2.29852 -0 0 -2 0.025 0 0 0 0.163625 
167 1 0.118751 0.462916 2.29672 -0 0 -2 0.025 0 0 0 0.163625 
164 1 0.0527853 0.200711 2.30868 -0 0 -2 0.025 0 0 0 0.163625 
261 1 0.0852607 0.230216 2.3269 -0 0 -2 0.015 0 0 0 0.0353429 
215 1 0.0767991 0.264474 2.31177 -0 0 -2 0.015 0 0 0 0.0353429 
297 1 0.141884 0.27502 2.30954 -0 0 -2 0.015 0 0 0 0.0353429 
243 1 0.113126 0.365244 2.3295 -0 0 -2 0.015 0 0 0 0.0353429 
292 1 0.0287531 0.422464 2.31168 -0 0 -2 0.015 0 0 0 0.0353429 
193 1 0.102412 0.413293 2.32452 -0 0 -2 0.025 0 0 0 0.163625 
198 1 0.0617553 0.466461 2.32462 -0 0 -2 0.025 0 0 0 0.163625 
219 1 0.0278687 0.201322 2.35455 -0 0 -2 0.015 0 0 0 0.0353429 
239 1 0.126558 0.237343 2.35131 -0 0 -2 0.015 0 0 0 0.0353429 
186 1 0.10183 0.291927 2.34408 -0 0 -2 0.025 0 0 0 0.163625 
266 1 0.0917737 0.36017 2.36111 -0 0 -2 0.015 0 0 0 0.0353429 
244 1 0.0497502 0.427977 2.34771 -0 0 -2 0.015 0 0 0 0.0353429 
