ITEM: TIMESTEP
72800
ITEM: NUMBER OF ATOMS
900
ITEM: BOX BOUNDS mm mm mm
-1 1
-1 1
-2.022 2.85
ITEM: ATOMS id type x y z vx vy vz radius fx fy fz mass 
68 1 -0.0997213 -0.118729 -1.75883 0 -0.5 -9.05354 0.015 0 0 -0.346714 0.0353429 
137 1 -0.0919228 -0.0640709 -1.7372 -0.00924354 -0.479856 -9.03068 0.015 0 0 -0.346714 0.0353429 
33 1 -0.129286 0.0726047 -1.72207 0 -0.5 -9.01361 0.025 0 0 -1.60516 0.163625 
45 1 -0.0943793 -0.167762 -1.71207 0 -0.5 -9.00272 0.025 0 0 -1.60516 0.163625 
122 1 -0.0671041 -0.117547 -1.71105 0.00811842 -0.517403 -9.0011 0.015 0 0 -0.346714 0.0353429 
119 1 -0.0370509 -0.178811 -1.66367 0 -0.5 -8.94985 0.015 0 0 -0.346714 0.0353429 
43 1 -0.116198 -0.0162146 -1.67739 0 -0.5 -8.96485 0.025 0 0 -1.60516 0.163625 
111 1 -0.0487783 0.1161 -1.67641 0 -0.5 -8.96378 0.015 0 0 -0.346714 0.0353429 
75 1 -0.0493142 -0.128328 -1.63519 0 -0.5 -8.91855 0.015 0 0 -0.346714 0.0353429 
78 1 -0.0422369 0.0799551 -1.6509 0 -0.5 -8.93582 0.015 0 0 -0.346714 0.0353429 
89 1 -0.129145 -0.0996921 -1.62466 0 -0.5 -8.90698 0.015 0 0 -0.346714 0.0353429 
59 1 -0.0865612 0.0288678 -1.60136 0 -0.5 -8.88127 0.015 0 0 -0.346714 0.0353429 
220 1 -0.0068425 -0.184292 -1.59826 -0.0669262 -0.554313 -8.87331 0.015 0 0 -0.346714 0.0353429 
92 1 -0.131017 0.123327 -1.5767 0 -0.5 -8.854 0.015 0 0 -0.346714 0.0353429 
26 1 -0.0140319 0.00647563 -1.5222 0.14857 -0.341553 -8.82305 0.025 0 0 -1.60516 0.163625 
98 1 -0.147127 -0.0275582 -1.48542 0 -0.5 -8.75227 0.015 0 0 -0.346714 0.0353429 
151 1 -0.0686397 0.054527 -1.48637 0 -0.5 -8.75335 0.015 0 0 -0.346714 0.0353429 
8 1 -0.104188 -0.160537 -1.45782 0 -0.5 -8.72127 0.025 0 0 -1.60516 0.163625 
3 1 -0.141317 0.0373879 -1.44517 0 -0.5 -8.70705 0.025 0 0 -1.60516 0.163625 
72 1 -0.105673 0.074796 -1.42336 0 -0.5 -8.68242 0.015 0 0 -0.346714 0.0353429 
100 1 -0.0681017 -0.092079 -1.39189 0 -0.5 -8.64681 0.015 0 0 -0.346714 0.0353429 
140 1 -0.125739 -0.0504436 -1.39977 0 -0.5 -8.65574 0.015 0 0 -0.346714 0.0353429 
40 1 -0.104474 0.126198 -1.39796 0 -0.5 -8.65368 0.025 0 0 -1.60516 0.163625 
117 1 -0.0596227 -0.148979 -1.35929 0 -0.5 -8.60973 0.015 0 0 -0.346714 0.0353429 
118 1 -0.0372647 0.109681 -1.3836 0 -0.5 -8.6374 0.015 0 0 -0.346714 0.0353429 
148 1 -0.220017 0.0165846 -1.35077 -0.171679 -0.397353 -8.65907 0.015 0 0 -0.346714 0.0353429 
51 1 -0.166385 -0.140479 -1.3176 -0.0265052 -0.519812 -8.55783 0.025 0 0 -1.60516 0.163625 
282 1 -0.075018 -0.126176 -1.30823 -0.2609 -0.673185 -8.53765 0.015 0 0 -0.346714 0.0353429 
90 1 -0.146535 0.127667 -1.26679 0 -0.5 -8.50369 0.015 0 0 -0.346714 0.0353429 
11 1 -0.0926561 0.031993 -1.2494 0.022917 -0.457889 -8.49655 0.025 0 0 -1.60516 0.163625 
60 1 -0.0770515 -0.140072 -1.2354 0 -0.5 -8.46739 0.015 0 0 -0.346714 0.0353429 
50 1 -0.130982 0.0843549 -1.23311 0 -0.5 -8.46474 0.025 0 0 -1.60516 0.163625 
74 1 -0.0790012 0.0718934 -1.18139 0 -0.5 -8.40461 0.015 0 0 -0.346714 0.0353429 
105 1 -0.288369 0.0505338 -1.16696 -0.321192 -0.368687 -8.38026 0.015 0 0 -0.346714 0.0353429 
76 1 -0.0202065 0.10007 -1.15782 0 -0.5 -8.37704 0.015 0 0 -0.346714 0.0353429 
44 1 -0.125916 -0.148403 -1.1421 0 -0.5 -8.3586 0.025 0 0 -1.60516 0.163625 
29 1 -0.0788351 0.114182 -1.11915 0 -0.5 -8.33162 0.025 0 0 -1.60516 0.163625 
36 1 -0.103411 -0.101688 -1.11024 0 -0.5 -8.32112 0.025 0 0 -1.60516 0.163625 
54 1 -0.186423 -0.0755704 -1.07489 -0.0956439 -0.529683 -8.26982 0.015 0 0 -0.346714 0.0353429 
114 1 -0.0721456 -0.0714452 -1.0576 -0.00040144 -0.499666 -8.25891 0.015 0 0 -0.346714 0.0353429 
73 1 -0.0639552 -0.122233 -1.01264 0 -0.5 -8.20527 0.015 0 0 -0.346714 0.0353429 
2 1 -0.110349 0.0250712 -1.00412 0 -0.5 -8.19506 0.025 0 0 -1.60516 0.163625 
113 1 -0.118506 0.149198 -1.02209 0 -0.5 -8.21655 0.015 0 0 -0.346714 0.0353429 
146 1 -0.109965 -0.135084 -0.979336 0 -0.5 -8.16534 0.015 0 0 -0.346714 0.0353429 
12 1 -0.0363281 0.134336 -0.981608 0 -0.5 -8.16809 0.025 0 0 -1.60516 0.163625 
57 1 -0.120673 -0.0189395 -0.938958 0 -0.5 -8.11668 0.015 0 0 -0.346714 0.0353429 
88 1 -0.0666498 0.0919185 -0.955278 0 -0.5 -8.1364 0.015 0 0 -0.346714 0.0353429 
99 1 -0.146283 -0.0704829 -0.919899 0 -0.5 -8.09363 0.015 0 0 -0.346714 0.0353429 
10 1 -0.0568715 0.122012 -0.91818 0.0635655 -0.375939 -8.15032 0.025 0 0 -1.60516 0.163625 
34 1 -0.138562 0.098511 -0.875857 0 -0.5 -8.04007 0.025 0 0 -1.60516 0.163625 
66 1 -0.0281121 -0.0831772 -0.85555 0 -0.5 -8.01525 0.015 0 0 -0.346714 0.0353429 
83 1 -0.108229 -0.040854 -0.867259 0 -0.5 -8.02957 0.015 0 0 -0.346714 0.0353429 
19 1 -0.0715757 -0.0607476 -0.861571 0 -0.5 -8.0226 0.025 0 0 -1.60516 0.163625 
71 1 -0.145263 0.142198 -0.842969 0 -0.5 -7.99985 0.015 0 0 -0.346714 0.0353429 
67 1 -0.0183057 -0.127611 -0.816083 0 -0.5 -7.96679 0.015 0 0 -0.346714 0.0353429 
81 1 -0.0245584 0.121484 -0.833833 0.07636 -0.438847 -7.96276 0.015 0 0 -0.346714 0.0353429 
24 1 -0.138394 -0.100548 -0.796745 0 -0.5 -7.94295 0.025 0 0 -1.60516 0.163625 
133 1 -0.127566 0.0159444 -0.783096 0 -0.5 -7.92607 0.015 0 0 -0.346714 0.0353429 
95 1 -0.10482 0.103312 -0.777637 0 -0.5 -7.9193 0.015 0 0 -0.346714 0.0353429 
39 1 -0.0696793 0.15301 -0.777465 0 -0.5 -7.91911 0.025 0 0 -1.60516 0.163625 
103 1 -0.135939 -0.0562777 -0.7391 0 -0.5 -7.87143 0.015 0 0 -0.346714 0.0353429 
143 1 -0.11631 0.161682 -0.725497 0 -0.5 -7.85446 0.015 0 0 -0.346714 0.0353429 
70 1 -0.107191 -0.0740756 -0.720009 0 -0.5 -7.84759 0.015 0 0 -0.346714 0.0353429 
97 1 -0.0338223 -0.070856 -0.694859 0 -0.5 -7.8161 0.015 0 0 -0.346714 0.0353429 
115 1 -0.076478 -0.0355689 -0.694229 0 -0.5 -7.81532 0.015 0 0 -0.346714 0.0353429 
28 1 -0.0685748 -0.0979299 -0.680805 0 -0.5 -7.79845 0.025 0 0 -1.60516 0.163625 
85 1 -0.13789 0.0860152 -0.690483 0 -0.5 -7.81061 0.015 0 0 -0.346714 0.0353429 
134 1 -0.137197 0.126367 -0.665471 0 -0.5 -7.77912 0.015 0 0 -0.346714 0.0353429 
126 1 -0.128222 0.00338431 -0.642384 -0.0288748 -0.539424 -7.73395 0.015 0 0 -0.346714 0.0353429 
120 1 -0.148569 0.175261 -0.651394 0 -0.5 -7.76136 0.015 0 0 -0.346714 0.0353429 
77 1 -0.0297287 0.154749 -0.654515 0 -0.5 -7.76529 0.015 0 0 -0.346714 0.0353429 
96 1 -0.131998 -0.0709186 -0.624371 0 -0.5 -7.72713 0.015 0 0 -0.346714 0.0353429 
38 1 -0.121616 -0.0298121 -0.592849 0 -0.5 -7.687 0.025 0 0 -1.60516 0.163625 
130 1 -0.0642546 -0.0355593 -0.534181 0 -0.5 -7.61176 0.015 0 0 -0.346714 0.0353429 
23 1 -0.134189 0.106519 -0.535547 0 -0.5 -7.61353 0.025 0 0 -1.60516 0.163625 
150 1 -0.100106 -0.0587931 -0.499949 0 -0.5 -7.56752 0.015 0 0 -0.346714 0.0353429 
18 1 -0.106015 0.171686 -0.498065 0 -0.5 -7.56507 0.025 0 0 -1.60516 0.163625 
4 1 -0.0330873 0.184857 -0.499262 0 -0.5 -7.56664 0.025 0 0 -1.60516 0.163625 
106 1 -0.156251 0.319723 -0.487115 -0.0998962 -0.230395 -7.64761 0.015 0 0 -0.346714 0.0353429 
31 1 -0.140814 -0.0931227 -0.477896 0 -0.5 -7.53887 0.025 0 0 -1.60516 0.163625 
110 1 -0.0868918 -0.103583 -0.43815 0 -0.5 -7.48698 0.015 0 0 -0.346714 0.0353429 
93 1 -0.0244706 -0.0918422 -0.418048 0 -0.5 -7.46059 0.015 0 0 -0.346714 0.0353429 
17 1 -0.134634 0.0220265 -0.407911 0 -0.5 -7.44725 0.025 0 0 -1.60516 0.163625 
136 1 -0.0832352 0.115008 -0.412825 0 -0.5 -7.45372 0.015 0 0 -0.346714 0.0353429 
30 1 -0.0481876 0.142857 -0.401134 0 -0.5 -7.43832 0.025 0 0 -1.60516 0.163625 
109 1 -0.0676248 0.19008 -0.402708 0 -0.5 -7.44038 0.015 0 0 -0.346714 0.0353429 
1 1 -0.153371 0.418118 -0.371885 -0.021394 -0.0706631 -7.51257 0.025 0 0 -1.60516 0.163625 
108 1 -0.089121 -0.0711765 -0.340099 0 -0.5 -7.35739 0.015 0 0 -0.346714 0.0353429 
69 1 -0.020474 -0.0509175 -0.307463 0 -0.5 -7.31373 0.015 0 0 -0.346714 0.0353429 
35 1 -0.146938 0.122792 -0.29775 0 -0.5 -7.30069 0.025 0 0 -1.60516 0.163625 
149 1 -0.00917803 0.0489436 -0.291113 0.199959 -0.45766 -7.44733 0.015 0 0 -0.346714 0.0353429 
102 1 -0.11709 -0.0711005 -0.252659 0 -0.5 -7.23986 0.015 0 0 -0.346714 0.0353429 
14 1 -0.0571303 -0.0790245 -0.236979 0 -0.5 -7.21858 0.025 0 0 -1.60516 0.163625 
139 1 -0.104092 -0.013428 -0.252887 0 -0.5 -7.24016 0.015 0 0 -0.346714 0.0353429 
144 1 -0.0691235 -0.0105259 -0.254251 0 -0.5 -7.24202 0.015 0 0 -0.346714 0.0353429 
22 1 -0.102489 0.0543065 -0.26027 0 -0.5 -7.25016 0.025 0 0 -1.60516 0.163625 
141 1 -0.136875 0.00226423 -0.215582 0 -0.5 -7.18944 0.015 0 0 -0.346714 0.0353429 
55 1 -0.0960011 0.160403 -0.230144 -7.52477e-06 -0.49998 -7.20929 0.015 0 0 -0.346714 0.0353429 
94 1 -0.297512 0.188591 -0.183782 -0.356499 -0.190573 -7.19683 0.015 0 0 -0.346714 0.0353429 
21 1 -0.0470047 0.2055 -0.194497 0 -0.5 -7.1606 0.025 0 0 -1.60516 0.163625 
87 1 -0.113676 0.123588 -0.173121 0 -0.5 -7.13127 0.015 0 0 -0.346714 0.0353429 
107 1 -0.141609 -0.0820523 -0.134964 0 -0.5 -7.07859 0.015 0 0 -0.346714 0.0353429 
112 1 -0.073338 0.00127873 -0.097241 0 -0.5 -7.0261 0.015 0 0 -0.346714 0.0353429 
84 1 -0.116406 0.0817863 -0.102225 0 -0.5 -7.03307 0.015 0 0 -0.346714 0.0353429 
147 1 -0.100309 0.193431 -0.112089 0 -0.5 -7.0468 0.015 0 0 -0.346714 0.0353429 
142 1 -0.0724928 -0.0572522 -0.0659995 0 -0.5 -6.98235 0.015 0 0 -0.346714 0.0353429 
47 1 -0.140465 0.16545 -0.0658605 0 -0.5 -6.98216 0.025 0 0 -1.60516 0.163625 
145 1 -0.0934491 0.158113 -0.0629216 0 -0.5 -6.97804 0.015 0 0 -0.346714 0.0353429 
6 1 -0.058927 -0.000196916 -0.0336692 0.101461 -0.428163 -6.94153 0.025 0 0 -1.60516 0.163625 
80 1 -0.102893 0.128893 -0.040085 0 -0.5 -6.94586 0.015 0 0 -0.346714 0.0353429 
32 1 -0.180118 -0.0838178 0.00557305 -0.0613285 -0.540948 -6.87859 0.025 0 0 -1.60516 0.163625 
135 1 -0.140472 0.0108926 0.00174025 0 -0.5 -6.88651 0.015 0 0 -0.346714 0.0353429 
62 1 -0.0849655 0.218406 0.00134167 0 -0.5 -6.8871 0.015 0 0 -0.346714 0.0353429 
138 1 -0.0317395 -0.0546844 0.0292068 0 -0.5 -6.84727 0.015 0 0 -0.346714 0.0353429 
128 1 -0.145291 0.0956768 0.0316122 0 -0.5 -6.84383 0.015 0 0 -0.346714 0.0353429 
15 1 -0.0715699 0.108955 0.0190634 0.0430154 -0.390763 -6.83433 0.025 0 0 -1.60516 0.163625 
280 1 -0.116252 0.435943 0.0118875 -0.323138 -0.0374805 -6.94918 0.015 0 0 -0.346714 0.0353429 
121 1 -0.0679495 0.200078 0.0606133 0 -0.5 -6.80214 0.015 0 0 -0.346714 0.0353429 
129 1 -0.0553418 -0.0308006 0.113899 0 -0.5 -6.72484 0.015 0 0 -0.346714 0.0353429 
61 1 -0.0231802 -0.0610652 0.151547 0 -0.5 -6.66971 0.015 0 0 -0.346714 0.0353429 
79 1 -0.0179342 -0.0270157 0.151672 0 -0.5 -6.66951 0.015 0 0 -0.346714 0.0353429 
13 1 -0.146779 0.0518211 0.135116 0 -0.5 -6.69384 0.025 0 0 -1.60516 0.163625 
101 1 -0.102489 0.0618245 0.129209 0 -0.5 -6.70247 0.015 0 0 -0.346714 0.0353429 
91 1 -0.124131 0.158132 0.152341 0 -0.5 -6.66853 0.015 0 0 -0.346714 0.0353429 
37 1 -0.0716655 0.164665 0.128405 0 -0.5 -6.70365 0.025 0 0 -1.60516 0.163625 
46 1 -0.032303 0.226569 0.135981 0 -0.5 -6.69256 0.025 0 0 -1.60516 0.163625 
52 1 -0.100497 -0.0455105 0.163526 0 -0.5 -6.65205 0.015 0 0 -0.346714 0.0353429 
5 1 -0.137704 -0.0175882 0.179077 0 -0.5 -6.62909 0.025 0 0 -1.60516 0.163625 
7 1 -0.0712578 0.0214494 0.183913 0 -0.5 -6.62193 0.025 0 0 -1.60516 0.163625 
20 1 -0.124339 0.109888 0.17424 0 -0.5 -6.63626 0.025 0 0 -1.60516 0.163625 
86 1 -0.142939 0.151059 0.234866 0 -0.5 -6.546 0.015 0 0 -0.346714 0.0353429 
9 1 -0.0320364 0.185159 0.239845 0 -0.5 -6.53855 0.025 0 0 -1.60516 0.163625 
58 1 -0.0969698 0.0558907 0.26006 0 -0.5 -6.50814 0.015 0 0 -0.346714 0.0353429 
124 1 -0.136447 0.181377 0.259873 0 -0.5 -6.50843 0.015 0 0 -0.346714 0.0353429 
41 1 -0.107908 0.236758 0.276242 0 -0.5 -6.48371 0.025 0 0 -1.60516 0.163625 
65 1 -0.147981 -0.0409033 0.279991 0 -0.5 -6.47802 0.015 0 0 -0.346714 0.0353429 
104 1 -0.138444 0.123217 0.334126 0 -0.5 -6.39552 0.015 0 0 -0.346714 0.0353429 
131 1 -0.025873 0.22404 0.320286 0 -0.5 -6.41671 0.015 0 0 -0.346714 0.0353429 
132 1 -0.0234712 -0.00783185 0.361231 0 -0.5 -6.35383 0.015 0 0 -0.346714 0.0353429 
48 1 -0.144727 0.049852 0.360075 0 -0.5 -6.35559 0.025 0 0 -1.60516 0.163625 
53 1 -0.106432 0.0943403 0.363136 0 -0.5 -6.35088 0.015 0 0 -0.346714 0.0353429 
49 1 -0.0613084 -0.0302895 0.389711 0 -0.5 -6.30968 0.025 0 0 -1.60516 0.163625 
16 1 -0.129915 0.193079 0.3942 0 -0.5 -6.30272 0.025 0 0 -1.60516 0.163625 
27 1 -0.0637137 0.219885 0.395135 0 -0.5 -6.30124 0.025 0 0 -1.60516 0.163625 
82 1 -0.0851821 0.183627 0.403327 0 -0.5 -6.28849 0.015 0 0 -0.346714 0.0353429 
63 1 -0.147823 0.249713 0.416748 0 -0.5 -6.2675 0.015 0 0 -0.346714 0.0353429 
25 1 -0.104447 0.00378532 0.458036 0 -0.5 -6.20255 0.025 0 0 -1.60516 0.163625 
127 1 -0.0304133 0.0156212 0.44181 0 -0.5 -6.22816 0.015 0 0 -0.346714 0.0353429 
56 1 -0.11556 0.247119 0.441615 0 -0.5 -6.22845 0.015 0 0 -0.346714 0.0353429 
42 1 -0.132916 0.0967956 0.478688 0 -0.5 -6.16979 0.025 0 0 -1.60516 0.163625 
123 1 -0.11925 0.153492 0.483926 0 -0.5 -6.16145 0.015 0 0 -0.346714 0.0353429 
64 1 -0.145219 0.217177 0.503776 0 -0.5 -6.12976 0.015 0 0 -0.346714 0.0353429 
125 1 -0.0960051 0.209127 0.506429 0 -0.5 -6.12555 0.015 0 0 -0.346714 0.0353429 
361 1 -0.0655065 -0.0048406 0.524021 0 -0.5 -6.09729 0.015 0 0 -0.346714 0.0353429 
392 1 -0.0201822 -0.0326234 0.527562 0 -0.5 -6.0916 0.015 0 0 -0.346714 0.0353429 
375 1 -0.132504 0.0322129 0.53741 0 -0.5 -6.07571 0.015 0 0 -0.346714 0.0353429 
391 1 -0.0665259 0.19419 0.525966 0 -0.5 -6.09415 0.015 0 0 -0.346714 0.0353429 
353 1 -0.0778865 0.0485101 0.564523 0 -0.5 -6.03176 0.015 0 0 -0.346714 0.0353429 
432 1 -0.110656 0.108023 0.581794 0 -0.5 -6.00361 0.015 0 0 -0.346714 0.0353429 
423 1 -0.035066 0.212352 0.579463 0 -0.5 -6.00743 0.015 0 0 -0.346714 0.0353429 
370 1 -0.0476722 0.266061 0.564482 0 -0.5 -6.03186 0.015 0 0 -0.346714 0.0353429 
449 1 -0.121601 -0.0270298 0.597261 0 -0.5 -5.9783 0.015 0 0 -0.346714 0.0353429 
348 1 -0.0494361 -0.0181745 0.622392 -0.0150753 -0.514502 -5.93415 0.025 0 0 -1.60516 0.163625 
409 1 -0.1116 0.0802793 0.631585 0 -0.5 -5.92169 0.015 0 0 -0.346714 0.0353429 
434 1 -0.110177 0.240235 0.62857 0 -0.5 -5.9267 0.015 0 0 -0.346714 0.0353429 
304 1 -0.147639 0.206299 0.665064 0 -0.5 -5.86597 0.025 0 0 -1.60516 0.163625 
327 1 -0.047146 0.243396 0.700849 0 -0.5 -5.80584 0.025 0 0 -1.60516 0.163625 
368 1 -0.0426125 0.0181031 0.730093 0 -0.5 -5.7562 0.015 0 0 -0.346714 0.0353429 
414 1 -0.12165 0.150412 0.707679 0 -0.5 -5.79426 0.015 0 0 -0.346714 0.0353429 
416 1 -0.148865 0.171752 0.723526 0 -0.5 -5.76738 0.015 0 0 -0.346714 0.0353429 
422 1 -0.0856494 0.234628 0.7278 0 -0.5 -5.76012 0.015 0 0 -0.346714 0.0353429 
307 1 -0.141488 0.0123164 0.765199 0 -0.5 -5.69606 0.025 0 0 -1.60516 0.163625 
328 1 -0.101567 0.0433596 0.750646 0 -0.5 -5.72108 0.025 0 0 -1.60516 0.163625 
342 1 -0.0942786 0.194007 0.752178 0 -0.5 -5.71843 0.025 0 0 -1.60516 0.163625 
440 1 -0.074831 -0.00536675 0.782124 0 -0.5 -5.66683 0.015 0 0 -0.346714 0.0353429 
352 1 -0.144025 0.231939 0.79582 0 -0.5 -5.64309 0.015 0 0 -0.346714 0.0353429 
441 1 -0.0895132 0.272957 0.765704 0 -0.5 -5.69518 0.015 0 0 -0.346714 0.0353429 
388 1 -0.0545692 0.0586855 0.817629 0 -0.5 -5.60503 0.015 0 0 -0.346714 0.0353429 
323 1 -0.131477 0.127813 0.815117 0 -0.5 -5.60944 0.025 0 0 -1.60516 0.163625 
330 1 -0.125578 0.288028 0.801393 0 -0.5 -5.63338 0.025 0 0 -1.60516 0.163625 
406 1 -0.0920408 0.231666 0.828154 0 -0.5 -5.58659 0.015 0 0 -0.346714 0.0353429 
418 1 -0.0554251 0.00494034 0.878578 0 -0.5 -5.49731 0.015 0 0 -0.346714 0.0353429 
318 1 -0.126425 0.205158 0.875564 0 -0.5 -5.50271 0.025 0 0 -1.60516 0.163625 
336 1 -0.025747 0.238523 0.886322 0 -0.5 -5.48348 0.025 0 0 -1.60516 0.163625 
331 1 -0.138106 -0.000169033 0.895424 0 -0.5 -5.4672 0.025 0 0 -1.60516 0.163625 
395 1 -0.110093 0.0558721 0.887428 0 -0.5 -5.48152 0.015 0 0 -0.346714 0.0353429 
313 1 -0.0392615 0.0436895 0.912326 0 -0.5 -5.43679 0.025 0 0 -1.60516 0.163625 
374 1 -0.133879 0.265467 0.915301 0 -0.5 -5.43139 0.015 0 0 -0.346714 0.0353429 
315 1 -0.0970947 0.110406 0.942226 0 -0.5 -5.38254 0.025 0 0 -1.60516 0.163625 
407 1 -0.0713596 0.238089 0.944068 0 -0.5 -5.3792 0.015 0 0 -0.346714 0.0353429 
310 1 -0.0919271 0.275993 0.938516 0 -0.5 -5.38931 0.025 0 0 -1.60516 0.163625 
445 1 -0.0938501 0.180643 0.962082 0 -0.5 -5.34624 0.015 0 0 -0.346714 0.0353429 
377 1 -0.128279 0.0277203 0.991926 0 -0.5 -5.29121 0.015 0 0 -0.346714 0.0353429 
386 1 -0.118095 0.24911 0.986829 0 -0.5 -5.30062 0.015 0 0 -0.346714 0.0353429 
302 1 -0.0567477 0.0253163 1.03674 0 -0.5 -5.20743 0.025 0 0 -1.60516 0.163625 
401 1 -0.0913429 0.0567804 1.03419 0 -0.5 -5.21224 0.015 0 0 -0.346714 0.0353429 
439 1 -0.132801 0.143897 1.03033 0 -0.5 -5.21949 0.015 0 0 -0.346714 0.0353429 
344 1 -0.147144 0.181445 1.01258 0 -0.5 -5.25275 0.025 0 0 -1.60516 0.163625 
314 1 -0.136534 0.0932362 1.04828 0 -0.5 -5.18565 0.025 0 0 -1.60516 0.163625 
413 1 -0.0512121 0.242816 1.06765 0 -0.5 -5.14886 0.015 0 0 -0.346714 0.0353429 
442 1 -0.149932 0.302171 1.06936 0 -0.5 -5.14563 0.015 0 0 -0.346714 0.0353429 
431 1 -0.13363 0.0536506 1.08495 0 -0.5 -5.1158 0.015 0 0 -0.346714 0.0353429 
355 1 -0.0483468 0.0727585 1.07558 0 -0.5 -5.13376 0.015 0 0 -0.346714 0.0353429 
354 1 -0.0927402 0.241498 1.08291 0 -0.5 -5.11973 0.015 0 0 -0.346714 0.0353429 
408 1 -0.087028 0.310439 1.08101 0 -0.5 -5.12336 0.015 0 0 -0.346714 0.0353429 
382 1 -0.10382 0.335702 1.09799 0.026541 -0.439017 -5.15895 0.015 0 0 -0.346714 0.0353429 
446 1 -0.116317 0.210626 1.11249 0 -0.5 -5.06273 0.015 0 0 -0.346714 0.0353429 
411 1 -0.0485728 0.293056 1.12265 0 -0.5 -5.04301 0.015 0 0 -0.346714 0.0353429 
427 1 -0.0888305 0.397882 1.12721 0.0988458 -0.172977 -5.19618 0.015 0 0 -0.346714 0.0353429 
350 1 -0.147794 0.0633949 1.18117 0 -0.5 -4.92784 0.025 0 0 -1.60516 0.163625 
399 1 -0.074527 0.0760481 1.16624 0 -0.5 -4.95747 0.015 0 0 -0.346714 0.0353429 
335 1 -0.126459 0.124418 1.18089 0 -0.5 -4.92843 0.025 0 0 -1.60516 0.163625 
436 1 -0.0854574 0.130951 1.1654 0 -0.5 -4.95914 0.015 0 0 -0.346714 0.0353429 
341 1 -0.148816 0.244228 1.16887 0 -0.5 -4.95227 0.025 0 0 -1.60516 0.163625 
385 1 -0.0696212 0.253365 1.18954 0 -0.5 -4.91117 0.015 0 0 -0.346714 0.0353429 
389 1 -0.0230912 0.317676 1.17036 0 -0.5 -4.94933 0.015 0 0 -0.346714 0.0353429 
384 1 -0.182111 0.340235 1.18253 -0.135564 -0.440896 -4.94227 0.015 0 0 -0.346714 0.0353429 
324 1 -0.0498553 0.0307032 1.19371 0 -0.5 -4.90283 0.025 0 0 -1.60516 0.163625 
437 1 -0.0723044 0.107232 1.20336 0 -0.5 -4.8835 0.015 0 0 -0.346714 0.0353429 
367 1 -0.106717 0.0878308 1.24829 0 -0.5 -4.79237 0.015 0 0 -0.346714 0.0353429 
394 1 -0.145405 0.282684 1.23377 0 -0.5 -4.82199 0.015 0 0 -0.346714 0.0353429 
426 1 -0.0179373 0.312964 1.24777 0 -0.5 -4.79345 0.015 0 0 -0.346714 0.0353429 
358 1 -0.127277 0.0547924 1.26643 0 -0.5 -4.75509 0.015 0 0 -0.346714 0.0353429 
326 1 -0.145564 0.184454 1.26862 0 -0.5 -4.75058 0.025 0 0 -1.60516 0.163625 
424 1 -0.137988 0.321038 1.25638 -0.0730123 -0.390635 -4.78362 0.015 0 0 -0.346714 0.0353429 
319 1 -0.0687817 0.334025 1.26305 0 -0.5 -4.76205 0.025 0 0 -1.60516 0.163625 
376 1 -0.0824761 0.0997717 1.2923 0 -0.5 -4.70143 0.015 0 0 -0.346714 0.0353429 
433 1 -0.118613 0.0406652 1.32352 0 -0.5 -4.6358 0.015 0 0 -0.346714 0.0353429 
420 1 -0.037203 0.0488256 1.32808 0 -0.5 -4.62619 0.015 0 0 -0.346714 0.0353429 
402 1 -0.101682 0.084287 1.33246 0 -0.5 -4.61687 0.015 0 0 -0.346714 0.0353429 
306 1 -0.116739 0.262034 1.33102 0 -0.5 -4.61991 0.025 0 0 -1.60516 0.163625 
412 1 -0.0937388 0.332584 1.33818 0 -0.5 -4.6047 0.015 0 0 -0.346714 0.0353429 
363 1 -0.0911777 0.161327 1.36094 0 -0.5 -4.55595 0.015 0 0 -0.346714 0.0353429 
360 1 -0.116599 0.185221 1.35894 0 -0.5 -4.56026 0.015 0 0 -0.346714 0.0353429 
397 1 -0.0557758 0.273618 1.36557 0 -0.5 -4.54594 0.015 0 0 -0.346714 0.0353429 
371 1 -0.0449321 0.312104 1.35688 0 -0.5 -4.56468 0.015 0 0 -0.346714 0.0353429 
322 1 -0.131733 0.0715637 1.39842 0 -0.5 -4.47452 0.025 0 0 -1.60516 0.163625 
396 1 -0.0958984 0.23866 1.40093 0 -0.5 -4.46903 0.015 0 0 -0.346714 0.0353429 
381 1 -0.0827007 0.307114 1.39435 0 -0.5 -4.48345 0.015 0 0 -0.346714 0.0353429 
373 1 -0.136858 0.218184 1.4094 0 -0.5 -4.45039 0.015 0 0 -0.346714 0.0353429 
369 1 -0.138958 0.276563 1.41277 0 -0.5 -4.44294 0.015 0 0 -0.346714 0.0353429 
383 1 -0.0262689 0.294803 1.41407 0 -0.5 -4.44009 0.015 0 0 -0.346714 0.0353429 
308 1 -0.079607 0.0861953 1.4409 -0.0168546 -0.516386 -4.37889 0.025 0 0 -1.60516 0.163625 
438 1 -0.0987495 0.170333 1.44224 0 -0.5 -4.3774 0.015 0 0 -0.346714 0.0353429 
356 1 -0.111476 0.213564 1.45066 0 -0.5 -4.35847 0.015 0 0 -0.346714 0.0353429 
443 1 -0.0906469 0.268658 1.46442 0 -0.5 -4.32737 0.015 0 0 -0.346714 0.0353429 
340 1 -0.149237 0.341237 1.45005 0 -0.5 -4.35984 0.025 0 0 -1.60516 0.163625 
415 1 -0.127182 0.12213 1.46685 0 -0.5 -4.32188 0.015 0 0 -0.346714 0.0353429 
343 1 -0.140775 0.180899 1.47535 0 -0.5 -4.30255 0.025 0 0 -1.60516 0.163625 
351 1 -0.0409452 0.299112 1.48569 0 -0.5 -4.27891 0.015 0 0 -0.346714 0.0353429 
349 1 -0.116564 0.300594 1.48012 0 -0.5 -4.29167 0.025 0 0 -1.60516 0.163625 
390 1 -0.0988461 0.0825899 1.51173 0 -0.5 -4.21878 0.015 0 0 -0.346714 0.0353429 
448 1 -0.0329565 0.09157 1.53828 0 -0.5 -4.15658 0.015 0 0 -0.346714 0.0353429 
347 1 -0.0548177 0.12889 1.54517 0 -0.5 -4.1403 0.025 0 0 -1.60516 0.163625 
378 1 -0.121409 0.177198 1.55322 0 -0.5 -4.12117 0.015 0 0 -0.346714 0.0353429 
312 1 -0.134707 0.236718 1.55455 0 -0.5 -4.11803 0.025 0 0 -1.60516 0.163625 
417 1 -0.0160313 0.336054 1.55454 0 -0.5 -4.11803 0.015 0 0 -0.346714 0.0353429 
346 1 -0.153098 0.393422 1.54772 -0.0151472 -0.325165 -4.17646 0.025 0 0 -1.60516 0.163625 
419 1 -0.111609 0.0735188 1.57485 0 -0.5 -4.06937 0.015 0 0 -0.346714 0.0353429 
362 1 -0.0154426 0.123609 1.57142 0 -0.5 -4.07761 0.015 0 0 -0.346714 0.0353429 
359 1 -0.107325 0.281399 1.56342 0 -0.5 -4.09684 0.015 0 0 -0.346714 0.0353429 
303 1 -0.0551599 0.300479 1.57192 0 -0.5 -4.07643 0.025 0 0 -1.60516 0.163625 
334 1 -0.103439 0.336448 1.58455 0 -0.5 -4.04592 0.025 0 0 -1.60516 0.163625 
421 1 -0.0930175 0.153542 1.59178 0 -0.5 -4.02836 0.015 0 0 -0.346714 0.0353429 
325 1 -0.117824 0.197025 1.63577 0 -0.5 -3.91977 0.025 0 0 -1.60516 0.163625 
365 1 -0.140328 0.253337 1.63452 0.0322739 -0.84426 -3.84118 0.015 0 0 -0.346714 0.0353429 
309 1 -0.144284 0.112031 1.6715 0 -0.5 -3.82932 0.025 0 0 -1.60516 0.163625 
320 1 -0.0648735 0.112929 1.65291 0 -0.5 -3.8766 0.025 0 0 -1.60516 0.163625 
372 1 -0.0702168 0.296237 1.65942 0 -0.5 -3.86012 0.015 0 0 -0.346714 0.0353429 
387 1 -0.0901615 0.274452 1.67555 0 -0.5 -3.81892 0.015 0 0 -0.346714 0.0353429 
447 1 -0.122284 0.377789 1.65397 0 -0.5 -3.87396 0.015 0 0 -0.346714 0.0353429 
338 1 -0.0583644 0.365556 1.67378 0 -0.5 -3.82343 0.025 0 0 -1.60516 0.163625 
379 1 -0.0327871 0.114329 1.70551 0 -0.5 -3.74113 0.015 0 0 -0.346714 0.0353429 
430 1 -0.123083 0.159393 1.68402 0 -0.5 -3.79704 0.015 0 0 -0.346714 0.0353429 
403 1 -0.0833248 0.165397 1.68772 0 -0.5 -3.78753 0.015 0 0 -0.346714 0.0353429 
393 1 -0.015571 0.336279 1.70106 0 -0.5 -3.7528 0.015 0 0 -0.346714 0.0353429 
357 1 -0.0584785 0.163214 1.73919 0 -0.5 -3.65176 0.015 0 0 -0.346714 0.0353429 
316 1 -0.0983119 0.0981107 1.74677 0 -0.5 -3.63135 0.025 0 0 -1.60516 0.163625 
364 1 -0.0453235 0.128807 1.76153 0 -0.5 -3.59123 0.015 0 0 -0.346714 0.0353429 
321 1 -0.126579 0.169251 1.76275 0 -0.5 -3.5879 0.025 0 0 -1.60516 0.163625 
410 1 -0.145474 0.218536 1.76827 0 -0.5 -3.57279 0.015 0 0 -0.346714 0.0353429 
333 1 -0.0978849 0.231337 1.76394 0 -0.5 -3.58466 0.025 0 0 -1.60516 0.163625 
380 1 -0.127355 0.273976 1.75563 0 -0.5 -3.60732 0.015 0 0 -0.346714 0.0353429 
301 1 -0.0864291 0.336346 1.74848 0.012148 -0.512208 -3.62673 0.025 0 0 -1.60516 0.163625 
428 1 -0.0387226 0.348002 1.75438 0 -0.5 -3.61075 0.015 0 0 -0.346714 0.0353429 
329 1 -0.125746 0.37599 1.74391 -0.0138001 -0.485947 -3.63914 0.025 0 0 -1.60516 0.163625 
450 1 -0.0322061 0.392898 1.75588 0 -0.5 -3.60663 0.015 0 0 -0.346714 0.0353429 
337 1 -0.142368 0.314838 1.78164 0 -0.5 -3.5359 0.025 0 0 -1.60516 0.163625 
332 1 -0.0814262 0.160266 1.82901 0 -0.5 -3.4019 0.025 0 0 -1.60516 0.163625 
400 1 -0.135353 0.203905 1.83348 0 -0.5 -3.38905 0.015 0 0 -0.346714 0.0353429 
425 1 -0.074083 0.106787 1.84635 0 -0.5 -3.35157 0.015 0 0 -0.346714 0.0353429 
311 1 -0.0354402 0.122368 1.8592 0 -0.5 -3.31371 0.025 0 0 -1.60516 0.163625 
317 1 -0.129905 0.246055 1.85503 0 -0.5 -3.32607 0.025 0 0 -1.60516 0.163625 
366 1 -0.144217 0.323022 1.85212 0 -0.5 -3.3346 0.015 0 0 -0.346714 0.0353429 
405 1 -0.038992 0.35739 1.859 0 -0.5 -3.31429 0.015 0 0 -0.346714 0.0353429 
339 1 -0.0802774 0.36866 1.84571 0 -0.5 -3.35344 0.025 0 0 -1.60516 0.163625 
305 1 -0.0452536 0.405472 1.84634 0 -0.5 -3.35157 0.025 0 0 -1.60516 0.163625 
544 1 -0.0310631 0.456323 1.8466 -0.39021 -0.130746 -3.43501 0.015 0 0 -0.346714 0.0353429 
404 1 -0.119976 0.127844 1.87275 0 -0.5 -3.27339 0.015 0 0 -0.346714 0.0353429 
345 1 -0.128178 0.170674 1.8686 0 -0.5 -3.28575 0.025 0 0 -1.60516 0.163625 
435 1 -0.0960728 0.207976 1.87328 0 -0.5 -3.27182 0.015 0 0 -0.346714 0.0353429 
444 1 -0.0159467 0.403826 1.89254 0 -0.5 -3.21355 0.015 0 0 -0.346714 0.0353429 
714 1 -0.0240605 0.172326 1.91611 0 -0.5 -3.14076 0.015 0 0 -0.346714 0.0353429 
675 1 -0.132676 0.368051 1.90973 -0.0349785 -0.349711 -3.26864 0.015 0 0 -0.346714 0.0353429 
690 1 -0.0634806 0.370565 1.92061 0 -0.5 -3.12663 0.015 0 0 -0.346714 0.0353429 
634 1 -0.102181 0.392021 1.92215 0 -0.5 -3.12182 0.025 0 0 -1.60516 0.163625 
676 1 -0.132839 0.199867 1.92775 0 -0.5 -3.10416 0.015 0 0 -0.346714 0.0353429 
652 1 -0.0683105 0.204338 1.93855 0 -0.5 -3.06983 0.015 0 0 -0.346714 0.0353429 
629 1 -0.113195 0.251381 1.94712 0 -0.5 -3.04236 0.025 0 0 -1.60516 0.163625 
669 1 -0.0318411 0.381893 1.94108 0 -0.5 -3.06179 0.015 0 0 -0.346714 0.0353429 
608 1 -0.0938106 0.140793 1.9676 0 -0.5 -2.97556 0.025 0 0 -1.60516 0.163625 
682 1 -0.0469368 0.136781 1.97339 0 -0.5 -2.95643 0.015 0 0 -0.346714 0.0353429 
657 1 -0.0480729 0.174927 1.97979 0 -0.5 -2.93514 0.015 0 0 -0.346714 0.0353429 
606 1 -0.122726 0.327038 1.96971 0.00210743 -0.508228 -2.96269 0.025 0 0 -1.60516 0.163625 
708 1 -0.0786991 0.365401 1.96894 0 -0.5 -2.97114 0.015 0 0 -0.346714 0.0353429 
660 1 -0.0183143 0.378377 1.98221 0 -0.5 -2.927 0.015 0 0 -0.346714 0.0353429 
701 1 -0.0870486 0.423674 1.97134 0 -0.5 -2.96319 0.015 0 0 -0.346714 0.0353429 
735 1 -0.0832421 0.218669 1.99066 0 -0.5 -2.89855 0.015 0 0 -0.346714 0.0353429 
709 1 -0.101732 0.267531 2.0141 0 -0.5 -2.8181 0.015 0 0 -0.346714 0.0353429 
707 1 -0.0900659 0.167989 2.03041 0 -0.5 -2.76072 0.015 0 0 -0.346714 0.0353429 
618 1 -0.13283 0.185164 2.01979 0 -0.5 -2.79819 0.025 0 0 -1.60516 0.163625 
640 1 -0.0489559 0.187517 2.04677 0 -0.5 -2.70195 0.025 0 0 -1.60516 0.163625 
680 1 -0.0791761 0.222881 2.03959 0 -0.5 -2.72795 0.015 0 0 -0.346714 0.0353429 
649 1 -0.129761 0.301177 2.03119 0 -0.5 -2.75797 0.025 0 0 -1.60516 0.163625 
750 1 -0.0862874 0.332179 2.02117 0 -0.5 -2.79338 0.015 0 0 -0.346714 0.0353429 
616 1 -0.140255 0.393264 2.04726 0 -0.5 -2.70019 0.025 0 0 -1.60516 0.163625 
677 1 -0.113879 0.158303 2.06637 0 -0.5 -2.62985 0.015 0 0 -0.346714 0.0353429 
744 1 -0.107021 0.344725 2.07682 0 -0.5 -2.59061 0.015 0 0 -0.346714 0.0353429 
725 1 -0.0732043 0.395614 2.06013 0 -0.5 -2.653 0.015 0 0 -0.346714 0.0353429 
712 1 -0.0372677 0.43855 2.0542 0 -0.5 -2.67488 0.015 0 0 -0.346714 0.0353429 
736 1 -0.0864872 0.251793 2.09535 0 -0.5 -2.51949 0.015 0 0 -0.346714 0.0353429 
685 1 -0.0969629 0.391703 2.08969 0 -0.5 -2.54136 0.015 0 0 -0.346714 0.0353429 
674 1 -0.11657 0.447544 2.10795 0 -0.5 -2.46985 0.015 0 0 -0.346714 0.0353429 
699 1 -0.0856858 0.44942 2.10645 0 -0.5 -2.47583 0.015 0 0 -0.346714 0.0353429 
610 1 -0.108705 0.191549 2.11955 0 -0.5 -2.42335 0.025 0 0 -1.60516 0.163625 
748 1 -0.0192599 0.180831 2.13082 0 -0.5 -2.37734 0.015 0 0 -0.346714 0.0353429 
692 1 -0.0389882 0.21307 2.1112 0 -0.5 -2.4569 0.015 0 0 -0.346714 0.0353429 
625 1 -0.109057 0.273242 2.12678 0.250947 -0.205125 -2.59277 0.025 0 0 -1.60516 0.163625 
636 1 -0.149776 0.366476 2.13913 0 -0.5 -2.34271 0.025 0 0 -1.60516 0.163625 
722 1 -0.124711 0.390428 2.11125 0 -0.5 -2.4567 0.015 0 0 -0.346714 0.0353429 
683 1 -0.0829948 0.392592 2.12254 0 -0.5 -2.41128 0.015 0 0 -0.346714 0.0353429 
732 1 -0.0691875 0.429647 2.12627 0 -0.5 -2.39598 0.015 0 0 -0.346714 0.0353429 
620 1 -0.0294016 0.423755 2.11752 0 -0.5 -2.43159 0.025 0 0 -1.60516 0.163625 
705 1 -0.0946775 0.169279 2.15697 0 -0.5 -2.26678 0.015 0 0 -0.346714 0.0353429 
641 1 -0.144401 0.235641 2.16242 -0.0165282 -0.51578 -2.23099 0.025 0 0 -1.60516 0.163625 
678 1 -0.0973357 0.321233 2.14559 0 -0.5 -2.31554 0.015 0 0 -0.346714 0.0353429 
694 1 -0.138308 0.333231 2.17034 0 -0.5 -2.20822 0.015 0 0 -0.346714 0.0353429 
733 1 -0.0833844 0.366272 2.17092 0 -0.5 -2.20567 0.015 0 0 -0.346714 0.0353429 
698 1 -0.111785 0.409616 2.16367 0 -0.5 -2.23765 0.015 0 0 -0.346714 0.0353429 
696 1 -0.058387 0.395843 2.15361 0 -0.5 -2.2813 0.015 0 0 -0.346714 0.0353429 
648 1 -0.130879 0.450847 2.15873 0 -0.5 -2.25923 0.025 0 0 -1.60516 0.163625 
644 1 -0.140738 0.179303 2.18559 0 -0.5 -2.13935 0.025 0 0 -1.60516 0.163625 
637 1 -0.0618774 0.200817 2.18083 0 -0.5 -2.16113 0.025 0 0 -1.60516 0.163625 
730 1 -0.0250727 0.181246 2.17606 0 -0.5 -2.18271 0.015 0 0 -0.346714 0.0353429 
729 1 -0.0894542 0.231908 2.18226 0 -0.5 -2.15456 0.015 0 0 -0.346714 0.0353429 
724 1 -0.0903421 0.269009 2.19149 0 -0.5 -2.11218 0.015 0 0 -0.346714 0.0353429 
745 1 -0.11486 0.307881 2.2013 0.0835254 -0.444222 -2.11683 0.015 2.44438 1.59861 -1.83638 0.0353429 
628 1 -0.0868315 0.402501 2.19994 -0.035052 -0.643145 -2.04303 0.025 0 0 -1.60516 0.163625 
639 1 -0.074927 0.453447 2.1878 0.113569 0.037071 -2.22916 0.025 0 0 -1.60516 0.163625 
679 1 -0.13837 0.180668 2.22896 -0 0 -2 0.015 0 0 0 0.0353429 
706 1 -0.129002 0.229476 2.23281 -0 0 -2 0.015 0 0 0 0.0353429 
684 1 -0.0877228 0.214489 2.21438 0 -0.5 -2.00309 0.015 0 0 -0.346714 0.0353429 
627 1 -0.14504 0.290308 2.21997 -0 0 -2 0.025 0 0 0 0.163625 
603 1 -0.121744 0.345667 2.22485 -0 0 -2 0.025 0 0 0 0.163625 
702 1 -0.149858 0.401742 2.23121 -0 0 -2 0.015 0 0 0 0.0353429 