ITEM: TIMESTEP
9600
ITEM: NUMBER OF ATOMS
300
ITEM: BOX BOUNDS mm mm mm
-1 1
-1 1
-0.05 2.85
ITEM: ATOMS id type x y z vx vy vz radius fx fy fz mass 
45 1 -0.0943793 0.148238 2.01848 0 -0.5 -2.8028 0.025 0 0 -1.60516 0.163625 
68 1 -0.0997213 0.197271 2.00383 0 -0.5 -2.85362 0.015 0 0 -0.346714 0.0353429 
122 1 -0.072235 0.209452 2.01847 0.00811842 -0.517403 -2.80118 0.015 0 0 -0.346714 0.0353429 
137 1 -0.0860808 0.239198 2.01102 -0.00924354 -0.479856 -2.83076 0.015 0 0 -0.346714 0.0353429 
33 1 -0.129286 0.388605 2.01536 0 -0.5 -2.81369 0.025 0 0 -1.60516 0.163625 
119 1 -0.0370509 0.137189 2.03345 0 -0.5 -2.74993 0.015 0 0 -0.346714 0.0353429 
75 1 -0.0493142 0.187672 2.04216 0 -0.5 -2.71863 0.015 0 0 -0.346714 0.0353429 
89 1 -0.129145 0.216308 2.04537 0 -0.5 -2.70706 0.015 0 0 -0.346714 0.0353429 
43 1 -0.116198 0.299785 2.02923 0 -0.5 -2.76493 0.025 0 0 -1.60516 0.163625 
59 1 -0.0865612 0.344868 2.05243 0 -0.5 -2.68135 0.015 0 0 -0.346714 0.0353429 
78 1 -0.0422369 0.395955 2.03736 0 -0.5 -2.7359 0.015 0 0 -0.346714 0.0353429 
111 1 -0.0487783 0.4321 2.02953 0 -0.5 -2.76386 0.015 0 0 -0.346714 0.0353429 
116 1 -0.0750172 0.239545 2.07492 0.36535 -0.287166 -2.79184 0.015 0 0 -0.346714 0.0353429 
92 1 -0.131017 0.439327 2.05985 0 -0.5 -2.65408 0.015 0 0 -0.346714 0.0353429 
8 1 -0.104188 0.155463 2.09485 0 -0.5 -2.52135 0.025 0 0 -1.60516 0.163625 
26 1 -0.107928 0.222337 2.0948 0.14857 -0.341553 -2.62313 0.025 0 0 -1.60516 0.163625 
100 1 -0.0681017 0.223921 2.11372 0 -0.5 -2.44689 0.015 0 0 -0.346714 0.0353429 
140 1 -0.125739 0.265556 2.11148 0 -0.5 -2.45582 0.015 0 0 -0.346714 0.0353429 
98 1 -0.147127 0.288442 2.08684 0 -0.5 -2.55235 0.015 0 0 -0.346714 0.0353429 
3 1 -0.141317 0.353388 2.09851 0 -0.5 -2.50713 0.025 0 0 -1.60516 0.163625 
72 1 -0.105673 0.390796 2.10476 0 -0.5 -2.4825 0.015 0 0 -0.346714 0.0353429 
151 1 -0.0686397 0.370527 2.08657 0 -0.5 -2.55343 0.015 0 0 -0.346714 0.0353429 
40 1 -0.104474 0.442198 2.11199 0 -0.5 -2.45376 0.025 0 0 -1.60516 0.163625 
117 1 -0.0596227 0.167021 2.12289 0 -0.5 -2.40981 0.015 0 0 -0.346714 0.0353429 
51 1 -0.149634 0.188042 2.13178 -0.0265052 -0.519812 -2.35791 0.025 0 0 -1.60516 0.163625 
118 1 -0.0372647 0.425681 2.11606 0 -0.5 -2.43748 0.015 0 0 -0.346714 0.0353429 
60 1 -0.0770515 0.175928 2.15681 0 -0.5 -2.26747 0.015 0 0 -0.346714 0.0353429 
148 1 -0.111871 0.267806 2.16201 -0.142341 -0.405176 -2.41118 0.015 0 0 -0.346714 0.0353429 
11 1 -0.104535 0.326163 2.15757 0 -0.5 -2.26423 0.025 0 0 -1.60516 0.163625 
74 1 -0.0790012 0.387893 2.17114 0 -0.5 -2.20469 0.015 0 0 -0.346714 0.0353429 
50 1 -0.130982 0.400355 2.15743 0 -0.5 -2.26482 0.025 0 0 -1.60516 0.163625 
90 1 -0.146535 0.443667 2.14837 0 -0.5 -2.30377 0.015 0 0 -0.346714 0.0353429 
44 1 -0.125916 0.167597 2.18136 0 -0.5 -2.15868 0.025 0 0 -1.60516 0.163625 
36 1 -0.103411 0.214312 2.18953 0 -0.5 -2.1212 0.025 0 0 -1.60516 0.163625 
54 1 -0.127903 0.25859 2.19316 0 -0.5 -2.10443 0.015 0 0 -0.346714 0.0353429 
105 1 -0.0951511 0.261901 2.18712 -0.340076 -0.195585 -2.3438 0.015 0 0 -0.346714 0.0353429 
114 1 -0.0718919 0.244344 2.20286 -0.00040144 -0.499666 -2.05899 0.015 0 0 -0.346714 0.0353429 
76 1 -0.0202065 0.41607 2.17729 0 -0.5 -2.17712 0.015 0 0 -0.346714 0.0353429 
29 1 -0.0788351 0.430182 2.18726 0 -0.5 -2.1317 0.025 0 0 -1.60516 0.163625 
146 1 -0.109965 0.179156 2.22205 -0 0 -2 0.015 0 0 0 0.0353429 
73 1 -0.0639552 0.193767 2.21392 0 -0.5 -2.00535 0.015 0 0 -0.346714 0.0353429 
99 1 -0.146283 0.240102 2.23668 -0 0 -2 0.015 0 0 0 0.0353429 
57 1 -0.120673 0.292821 2.23196 -0 0 -2 0.015 0 0 0 0.0353429 
2 1 -0.110349 0.340826 2.21599 -0 0 -2 0.025 0 0 0 0.163625 
88 1 -0.0666498 0.404684 2.22796 -0 0 -2 0.015 0 0 0 0.0353429 
12 1 -0.0363281 0.448716 2.2215 -0 0 -2 0.025 0 0 0 0.163625 
113 1 -0.118506 0.465198 2.21159 0 -0.5 -2.01663 0.015 0 0 -0.346714 0.0353429 
67 1 -0.0183057 0.176509 2.26252 -0 0 -2 0.015 0 0 0 0.0353429 
66 1 -0.0281121 0.223413 2.25265 -0 0 -2 0.015 0 0 0 0.0353429 
83 1 -0.108229 0.266466 2.24973 -0 0 -2 0.015 0 0 0 0.0353429 
19 1 -0.0715757 0.246217 2.25114 -0 0 -2 0.025 0 0 0 0.163625 
10 1 -0.0985872 0.348255 2.26669 -0 0 -2 0.025 0 0 0 0.163625 
34 1 -0.138562 0.406366 2.24759 -0 0 -2 0.025 0 0 0 0.163625 
81 1 -0.051385 0.406229 2.25408 -0 0 -2 0.015 0 0 0 0.0353429 
71 1 -0.145263 0.448003 2.2558 -0 0 -2 0.015 0 0 0 0.0353429 
24 1 -0.138394 0.202357 2.26739 -0 0 -2 0.025 0 0 0 0.163625 
28 1 -0.0685748 0.19761 2.29685 -0 0 -2 0.025 0 0 0 0.163625 
70 1 -0.107191 0.223969 2.28682 -0 0 -2 0.015 0 0 0 0.0353429 
97 1 -0.0338223 0.225584 2.29325 -0 0 -2 0.015 0 0 0 0.0353429 
103 1 -0.135939 0.242982 2.28197 -0 0 -2 0.015 0 0 0 0.0353429 
115 1 -0.076478 0.260831 2.29342 -0 0 -2 0.015 0 0 0 0.0353429 
133 1 -0.127566 0.317989 2.27083 -0 0 -2 0.015 0 0 0 0.0353429 
126 1 -0.11117 0.322121 2.29719 -0 0 -2 0.015 0 0 0 0.0353429 
85 1 -0.13789 0.382175 2.29437 -0 0 -2 0.015 0 0 0 0.0353429 
95 1 -0.10482 0.405012 2.2722 -0 0 -2 0.015 0 0 0 0.0353429 
143 1 -0.11631 0.460077 2.28543 -0 0 -2 0.015 0 0 0 0.0353429 
39 1 -0.0696793 0.4547 2.27226 -0 0 -2 0.025 0 0 0 0.163625 
96 1 -0.131998 0.220986 2.31139 -0 0 -2 0.015 0 0 0 0.0353429 
38 1 -0.121616 0.260048 2.31957 -0 0 -2 0.025 0 0 0 0.163625 
134 1 -0.137197 0.420922 2.30078 -0 0 -2 0.015 0 0 0 0.0353429 
77 1 -0.0297287 0.448599 2.3036 -0 0 -2 0.015 0 0 0 0.0353429 
120 1 -0.148569 0.468911 2.30442 -0 0 -2 0.015 0 0 0 0.0353429 
31 1 -0.140814 0.189187 2.34977 -0 0 -2 0.025 0 0 0 0.163625 
150 1 -0.100106 0.224977 2.34393 -0 0 -2 0.015 0 0 0 0.0353429 
130 1 -0.0642546 0.250466 2.33491 -0 0 -2 0.015 0 0 0 0.0353429 
23 1 -0.134189 0.392634 2.33455 -0 0 -2 0.025 0 0 0 0.163625 
18 1 -0.106015 0.455331 2.34442 -0 0 -2 0.025 0 0 0 0.163625 
4 1 -0.0330873 0.468582 2.34412 -0 0 -2 0.025 0 0 0 0.163625 
110 1 -0.0868918 0.176082 2.36035 -0 0 -2 0.015 0 0 0 0.0353429 
108 1 -0.089121 0.201884 2.38678 -0 0 -2 0.015 0 0 0 0.0353429 
93 1 -0.0244706 0.186478 2.36573 -0 0 -2 0.015 0 0 0 0.0353429 
17 1 -0.134634 0.299667 2.36845 -0 0 -2 0.025 0 0 0 0.163625 
136 1 -0.0832352 0.392978 2.36713 -0 0 -2 0.015 0 0 0 0.0353429 
30 1 -0.0481876 0.420042 2.37027 -0 0 -2 0.025 0 0 0 0.163625 
109 1 -0.0676248 0.46737 2.36984 -0 0 -2 0.015 0 0 0 0.0353429 
102 1 -0.11709 0.195969 2.41074 -0 0 -2 0.015 0 0 0 0.0353429 
14 1 -0.0571303 0.18696 2.41507 -0 0 -2 0.025 0 0 0 0.163625 
69 1 -0.020474 0.219918 2.39567 -0 0 -2 0.015 0 0 0 0.0353429 
139 1 -0.104092 0.253657 2.41067 -0 0 -2 0.015 0 0 0 0.0353429 
144 1 -0.0691235 0.256654 2.4103 -0 0 -2 0.015 0 0 0 0.0353429 
22 1 -0.102489 0.321901 2.40863 -0 0 -2 0.025 0 0 0 0.163625 
35 1 -0.146938 0.392962 2.39832 -0 0 -2 0.025 0 0 0 0.163625 
106 1 -0.102883 0.446824 2.39443 -0 0 -2 0.015 0 0 0 0.0353429 
55 1 -0.0959971 0.425903 2.41697 -0 0 -2 0.015 0 0 0 0.0353429 
107 1 -0.141609 0.176798 2.44362 -0 0 -2 0.015 0 0 0 0.0353429 
141 1 -0.136875 0.266764 2.42101 -0 0 -2 0.015 0 0 0 0.0353429 
87 1 -0.113676 0.385123 2.43287 -0 0 -2 0.015 0 0 0 0.0353429 
1 1 -0.142366 0.459394 2.43037 -0 0 -2 0.025 0 0 0 0.163625 
21 1 -0.0470047 0.46853 2.42688 -0 0 -2 0.025 0 0 0 0.163625 
142 1 -0.0724928 0.196693 2.46323 -0 0 -2 0.015 0 0 0 0.0353429 
6 1 -0.109435 0.215083 2.47484 -0 0 -2 0.025 0 0 0 0.163625 
149 1 -0.107316 0.253342 2.4629 -0 0 -2 0.015 0 0 0 0.0353429 
112 1 -0.073338 0.257454 2.45431 -0 0 -2 0.015 0 0 0 0.0353429 
94 1 -0.127866 0.29863 2.44984 -0 0 -2 0.015 0 0 0 0.0353429 
15 1 -0.0916636 0.308509 2.47668 -0 0 -2 0.025 0 0 0 0.163625 
84 1 -0.116406 0.338316 2.4529 -0 0 -2 0.015 0 0 0 0.0353429 
80 1 -0.102893 0.380978 2.47068 -0 0 -2 0.015 0 0 0 0.0353429 
47 1 -0.140465 0.419385 2.46327 -0 0 -2 0.025 0 0 0 0.163625 
145 1 -0.0934491 0.411838 2.46412 -0 0 -2 0.015 0 0 0 0.0353429 
147 1 -0.100309 0.450661 2.45009 -0 0 -2 0.015 0 0 0 0.0353429 
32 1 -0.149633 0.185622 2.48266 -0 0 -2 0.025 0 0 0 0.163625 
138 1 -0.0317395 0.192376 2.49076 -0 0 -2 0.015 0 0 0 0.0353429 
135 1 -0.140472 0.259953 2.48276 -0 0 -2 0.015 0 0 0 0.0353429 
128 1 -0.145291 0.342562 2.49147 -0 0 -2 0.015 0 0 0 0.0353429 
121 1 -0.0679495 0.444838 2.49997 -0 0 -2 0.015 0 0 0 0.0353429 
62 1 -0.0849655 0.467496 2.48266 -0 0 -2 0.015 0 0 0 0.0353429 
61 1 -0.0231802 0.176945 2.52697 -0 0 -2 0.015 0 0 0 0.0353429 
52 1 -0.100497 0.1916 2.53056 -0 0 -2 0.015 0 0 0 0.0353429 
129 1 -0.0553418 0.210019 2.51572 -0 0 -2 0.015 0 0 0 0.0353429 
79 1 -0.0179342 0.210984 2.527 -0 0 -2 0.015 0 0 0 0.0353429 
5 1 -0.137704 0.218352 2.53525 -0 0 -2 0.025 0 0 0 0.163625 
7 1 -0.0712578 0.257024 2.53671 -0 0 -2 0.025 0 0 0 0.163625 
13 1 -0.146779 0.291061 2.52206 -0 0 -2 0.025 0 0 0 0.163625 
101 1 -0.102489 0.301504 2.52029 -0 0 -2 0.015 0 0 0 0.0353429 
20 1 -0.124339 0.346193 2.5338 -0 0 -2 0.025 0 0 0 0.163625 
91 1 -0.124131 0.396082 2.52721 -0 0 -2 0.015 0 0 0 0.0353429 
37 1 -0.0716655 0.404405 2.52005 -0 0 -2 0.025 0 0 0 0.163625 
46 1 -0.032303 0.465744 2.52231 -0 0 -2 0.025 0 0 0 0.163625 
65 1 -0.147981 0.187337 2.56604 -0 0 -2 0.015 0 0 0 0.0353429 
58 1 -0.0969698 0.285666 2.55991 -0 0 -2 0.015 0 0 0 0.0353429 
86 1 -0.142939 0.382764 2.55219 -0 0 -2 0.015 0 0 0 0.0353429 
124 1 -0.136447 0.411167 2.55985 -0 0 -2 0.015 0 0 0 0.0353429 
9 1 -0.0320364 0.416484 2.55371 -0 0 -2 0.025 0 0 0 0.163625 
41 1 -0.107908 0.465288 2.56489 -0 0 -2 0.025 0 0 0 0.163625 
132 1 -0.0234712 0.214078 2.59138 -0 0 -2 0.015 0 0 0 0.0353429 
48 1 -0.144727 0.271852 2.59101 -0 0 -2 0.025 0 0 0 0.163625 
53 1 -0.106432 0.3161 2.59198 -0 0 -2 0.015 0 0 0 0.0353429 
104 1 -0.138444 0.347252 2.58286 -0 0 -2 0.015 0 0 0 0.0353429 
131 1 -0.025873 0.449155 2.57854 -0 0 -2 0.015 0 0 0 0.0353429 
49 1 -0.0613084 0.18937 2.60036 -0 0 -2 0.025 0 0 0 0.163625 
25 1 -0.104447 0.217985 2.62221 -0 0 -2 0.025 0 0 0 0.163625 
127 1 -0.0304133 0.231126 2.61699 -0 0 -2 0.015 0 0 0 0.0353429 
42 1 -0.132916 0.309326 2.62888 -0 0 -2 0.025 0 0 0 0.163625 
16 1 -0.129915 0.412384 2.6018 -0 0 -2 0.025 0 0 0 0.163625 
82 1 -0.0851821 0.402207 2.60469 -0 0 -2 0.015 0 0 0 0.0353429 
27 1 -0.0637137 0.439115 2.60209 -0 0 -2 0.025 0 0 0 0.163625 
63 1 -0.147823 0.467223 2.60896 -0 0 -2 0.015 0 0 0 0.0353429 
56 1 -0.11556 0.462639 2.61692 -0 0 -2 0.015 0 0 0 0.0353429 
123 1 -0.11925 0.365597 2.63058 -0 0 -2 0.015 0 0 0 0.0353429 
125 1 -0.0960051 0.419402 2.63792 -0 0 -2 0.015 0 0 0 0.0353429 
64 1 -0.145219 0.427667 2.63704 -0 0 -2 0.015 0 0 0 0.0353429 
289 1 0.0936008 0.281162 1.97805 0.0203384 -0.134604 -3.23191 0.015 0 0 -0.346714 0.0353429 
203 1 0.0667127 0.135233 2.01717 0 -0.5 -2.80741 0.015 0 0 -0.346714 0.0353429 
284 1 0.0765149 0.166696 2.00809 0 -0.5 -2.8389 0.015 0 0 -0.346714 0.0353429 
213 1 0.0350777 0.37457 2.01724 0 -0.5 -2.80712 0.015 0 0 -0.346714 0.0353429 
272 1 0.0168276 0.409548 2.01467 0 -0.5 -2.81614 0.015 0 0 -0.346714 0.0353429 
220 1 0.0354548 0.166034 2.0505 -0.0669262 -0.554313 -2.67339 0.015 0 0 -0.346714 0.0353429 
259 1 0.149131 0.175826 2.03102 0 -0.5 -2.75856 0.015 0 0 -0.346714 0.0353429 
263 1 0.025742 0.196494 2.03744 0 -0.5 -2.7356 0.015 0 0 -0.346714 0.0353429 
206 1 0.078846 0.198147 2.03049 0.0985113 -0.67138 -2.92222 0.015 0 0 -0.346714 0.0353429 
237 1 0.117019 0.196451 2.02704 0 -0.5 -2.77268 0.015 0 0 -0.346714 0.0353429 
199 1 0.090618 0.241369 2.03847 -0.00278668 -0.321029 -2.90357 0.025 0 0 -1.60516 0.163625 
214 1 0.144386 0.321733 2.02236 0 -0.5 -2.78917 0.015 0 0 -0.346714 0.0353429 
171 1 0.0955264 0.337107 2.03067 0 -0.5 -2.75983 0.025 0 0 -1.60516 0.163625 
226 1 0.110692 0.383304 2.02799 0 -0.5 -2.76935 0.015 0 0 -0.346714 0.0353429 
241 1 0.0849537 0.405018 2.02485 0 -0.5 -2.78043 0.015 0 0 -0.346714 0.0353429 
177 1 0.1288 0.278972 2.05293 0.122099 -0.354776 -2.67297 0.025 0 0 -1.60516 0.163625 
290 1 0.140367 0.321539 2.0654 0 -0.5 -2.63348 0.015 0 0 -0.346714 0.0353429 
249 1 0.0491797 0.375421 2.08256 0 -0.5 -2.56873 0.015 0 0 -0.346714 0.0353429 
166 1 0.0609489 0.439253 2.07389 0 -0.5 -2.6017 0.025 0 0 -1.60516 0.163625 
184 1 0.11251 0.437841 2.07072 0 -0.5 -2.61357 0.025 0 0 -1.60516 0.163625 
222 1 0.123753 0.177661 2.09932 0 -0.5 -2.50389 0.015 0 0 -0.346714 0.0353429 
216 1 0.0786319 0.200869 2.09598 -0.0532053 -0.631329 -2.40348 0.015 0 0 -0.346714 0.0353429 
270 1 0.0946744 0.367669 2.08929 0 -0.5 -2.54293 0.015 0 0 -0.346714 0.0353429 
294 1 0.128315 0.400152 2.09722 0 -0.5 -2.51213 0.015 0 0 -0.346714 0.0353429 
209 1 0.0969746 0.173248 2.14174 0 -0.5 -2.33182 0.015 0 0 -0.346714 0.0353429 
180 1 0.0442532 0.194424 2.11677 0 -0.5 -2.43463 0.025 0 0 -1.60516 0.163625 
282 1 0.0898707 0.299276 2.12839 -0.2609 -0.673185 -2.33773 0.015 0 0 -0.346714 0.0353429 
253 1 0.123075 0.285069 2.11977 0 -0.5 -2.42247 0.015 0 0 -0.346714 0.0353429 
170 1 0.138526 0.332194 2.11475 0.161731 -0.381986 -2.47547 0.025 0 0 -1.60516 0.163625 
231 1 0.0350342 0.39762 2.11699 0 -0.5 -2.43375 0.015 0 0 -0.346714 0.0353429 
169 1 0.0892107 0.406668 2.12789 0 -0.5 -2.38941 0.025 0 0 -1.60516 0.163625 
269 1 0.141487 0.205504 2.17537 0 -0.5 -2.18575 0.015 0 0 -0.346714 0.0353429 
296 1 0.146983 0.289001 2.15873 0 -0.5 -2.25923 0.015 0 0 -0.346714 0.0353429 
278 1 0.113612 0.307965 2.15787 0 -0.5 -2.26296 0.015 0 0 -0.346714 0.0353429 
162 1 0.0478022 0.410457 2.17303 0 -0.5 -2.19625 0.025 0 0 -1.60516 0.163625 
257 1 0.139837 0.420641 2.1581 0 -0.5 -2.26198 0.015 0 0 -0.346714 0.0353429 
153 1 0.0895866 0.17076 2.19646 0 -0.5 -2.08893 0.025 0 0 -1.60516 0.163625 
235 1 0.134937 0.176385 2.18218 0 -0.5 -2.15495 0.015 0 0 -0.346714 0.0353429 
168 1 0.0261487 0.210104 2.17669 0 -0.5 -2.17987 0.025 0 0 -1.60516 0.163625 
211 1 0.0694768 0.228972 2.20518 0 -0.5 -2.04763 0.015 0 0 -0.346714 0.0353429 
185 1 0.0936576 0.254666 2.18531 0 -0.5 -2.14072 0.025 0 0 -1.60516 0.163625 
217 1 0.133752 0.255691 2.1815 0 -0.5 -2.15809 0.015 0 0 -0.346714 0.0353429 
251 1 0.126174 0.323559 2.20219 0 -0.5 -2.06185 0.015 0 0 -0.346714 0.0353429 
182 1 0.114565 0.365779 2.17977 0 -0.5 -2.16594 0.025 0 0 -1.60516 0.163625 
176 1 0.0399362 0.462472 2.18153 0 -0.5 -2.15789 0.025 0 0 -1.60516 0.163625 
286 1 0.147755 0.45487 2.18102 0 -0.5 -2.16025 0.015 0 0 -0.346714 0.0353429 
204 1 0.134881 0.215418 2.22232 -0 0 -2 0.015 0 0 0 0.0353429 
161 1 0.135356 0.273135 2.22187 -0 0 -2 0.025 0 0 0 0.163625 
230 1 0.118982 0.311717 2.22963 -0 0 -2 0.015 0 0 0 0.0353429 
228 1 0.0279693 0.421998 2.2254 -0 0 -2 0.015 0 0 0 0.0353429 
291 1 0.140432 0.399523 2.21169 0 -0.5 -2.01614 0.015 0 0 -0.346714 0.0353429 
300 1 0.149285 0.45152 2.2179 -0 0 -2 0.015 0 0 0 0.0353429 
159 1 0.087245 0.458208 2.21228 0 -0.5 -2.01329 0.025 0 0 -1.60516 0.163625 
175 1 0.0941494 0.204234 2.23831 -0 0 -2 0.025 0 0 0 0.163625 
299 1 0.0153001 0.223001 2.25717 -0 0 -2 0.015 0 0 0 0.0353429 
293 1 0.0548164 0.239515 2.25353 -0 0 -2 0.015 0 0 0 0.0353429 
200 1 0.112803 0.253719 2.26474 -0 0 -2 0.025 0 0 0 0.163625 
192 1 0.134392 0.364514 2.24915 -0 0 -2 0.025 0 0 0 0.163625 
285 1 0.0870748 0.401534 2.24991 -0 0 -2 0.015 0 0 0 0.0353429 
275 1 0.0211058 0.446622 2.25636 -0 0 -2 0.015 0 0 0 0.0353429 
256 1 0.0868225 0.433952 2.24742 -0 0 -2 0.015 0 0 0 0.0353429 
250 1 0.138716 0.448388 2.24622 -0 0 -2 0.015 0 0 0 0.0353429 
246 1 0.0494565 0.4682 2.25025 -0 0 -2 0.015 0 0 0 0.0353429 
240 1 0.0956629 0.4648 2.25133 -0 0 -2 0.015 0 0 0 0.0353429 
189 1 0.0509787 0.189477 2.28716 -0 0 -2 0.025 0 0 0 0.163625 
202 1 0.126943 0.194204 2.27066 -0 0 -2 0.015 0 0 0 0.0353429 
245 1 0.0868358 0.21853 2.27574 -0 0 -2 0.015 0 0 0 0.0353429 
247 1 0.0532922 0.24431 2.28402 -0 0 -2 0.015 0 0 0 0.0353429 
154 1 0.116388 0.333622 2.293 -0 0 -2 0.025 0 0 0 0.163625 
255 1 0.0340792 0.41171 2.26762 -0 0 -2 0.015 0 0 0 0.0353429 
252 1 0.131256 0.420269 2.26763 -0 0 -2 0.015 0 0 0 0.0353429 
210 1 0.0872868 0.178716 2.32168 -0 0 -2 0.015 0 0 0 0.0353429 
287 1 0.130384 0.17682 2.30113 -0 0 -2 0.015 0 0 0 0.0353429 
288 1 0.0326968 0.220656 2.30617 -0 0 -2 0.015 0 0 0 0.0353429 
181 1 0.070397 0.216714 2.32554 -0 0 -2 0.025 0 0 0 0.163625 
165 1 0.148355 0.269976 2.31987 -0 0 -2 0.025 0 0 0 0.163625 
295 1 0.103955 0.389653 2.3077 -0 0 -2 0.015 0 0 0 0.0353429 
156 1 0.0411221 0.437707 2.30894 -0 0 -2 0.025 0 0 0 0.163625 
190 1 0.11779 0.446077 2.29762 -0 0 -2 0.025 0 0 0 0.163625 
233 1 0.0406697 0.190327 2.34687 -0 0 -2 0.015 0 0 0 0.0353429 
260 1 0.0198171 0.221855 2.34007 -0 0 -2 0.015 0 0 0 0.0353429 
152 1 0.089118 0.280769 2.33652 -0 0 -2 0.025 0 0 0 0.163625 
279 1 0.11959 0.339787 2.34116 -0 0 -2 0.015 0 0 0 0.0353429 
262 1 0.0888361 0.372678 2.34432 -0 0 -2 0.015 0 0 0 0.0353429 
207 1 0.128901 0.387724 2.35366 -0 0 -2 0.015 0 0 0 0.0353429 
234 1 0.0945525 0.423196 2.34171 -0 0 -2 0.015 0 0 0 0.0353429 
194 1 0.131621 0.447751 2.35216 -0 0 -2 0.025 0 0 0 0.163625 
208 1 0.0680799 0.458746 2.34503 -0 0 -2 0.015 0 0 0 0.0353429 
212 1 0.0737637 0.196713 2.3761 -0 0 -2 0.015 0 0 0 0.0353429 
236 1 0.111584 0.210187 2.37611 -0 0 -2 0.015 0 0 0 0.0353429 
242 1 0.131055 0.286068 2.38637 -0 0 -2 0.015 0 0 0 0.0353429 
191 1 0.0609008 0.410844 2.37804 -0 0 -2 0.025 0 0 0 0.163625 
223 1 0.0343911 0.467936 2.36155 -0 0 -2 0.015 0 0 0 0.0353429 
178 1 0.0370442 0.176531 2.39348 -0 0 -2 0.025 0 0 0 0.163625 
258 1 0.135516 0.183364 2.41348 -0 0 -2 0.015 0 0 0 0.0353429 
224 1 0.132465 0.234727 2.39354 -0 0 -2 0.015 0 0 0 0.0353429 
221 1 0.0987988 0.270466 2.39823 -0 0 -2 0.015 0 0 0 0.0353429 
179 1 0.136485 0.334335 2.40933 -0 0 -2 0.025 0 0 0 0.163625 
248 1 0.0851139 0.371469 2.41656 -0 0 -2 0.015 0 0 0 0.0353429 
264 1 0.0357265 0.464363 2.41767 -0 0 -2 0.015 0 0 0 0.0353429 
205 1 0.0941484 0.176621 2.43985 -0 0 -2 0.015 0 0 0 0.0353429 
227 1 0.137271 0.1866 2.44532 -0 0 -2 0.015 0 0 0 0.0353429 
187 1 0.0681893 0.23526 2.42152 -0 0 -2 0.025 0 0 0 0.163625 
232 1 0.13999 0.251489 2.43533 -0 0 -2 0.015 0 0 0 0.0353429 
174 1 0.030822 0.423363 2.43581 -0 0 -2 0.025 0 0 0 0.163625 
157 1 0.115469 0.419287 2.4235 -0 0 -2 0.025 0 0 0 0.163625 
277 1 0.0674794 0.455945 2.42445 -0 0 -2 0.015 0 0 0 0.0353429 
201 1 0.0267726 0.186335 2.45943 -0 0 -2 0.025 0 0 0 0.163625 
276 1 0.0937292 0.21136 2.45347 -0 0 -2 0.015 0 0 0 0.0353429 
265 1 0.115746 0.204637 2.47681 -0 0 -2 0.015 0 0 0 0.0353429 
225 1 0.0772421 0.22912 2.47496 -0 0 -2 0.015 0 0 0 0.0353429 
158 1 0.0866624 0.276126 2.45874 -0 0 -2 0.025 0 0 0 0.163625 
254 1 0.137401 0.322401 2.46436 -0 0 -2 0.015 0 0 0 0.0353429 
172 1 0.128434 0.362446 2.45447 -0 0 -2 0.025 0 0 0 0.163625 
283 1 0.102888 0.442022 2.47145 -0 0 -2 0.015 0 0 0 0.0353429 
173 1 0.0548933 0.463589 2.47484 -0 0 -2 0.025 0 0 0 0.163625 
229 1 0.102013 0.176876 2.493 -0 0 -2 0.015 0 0 0 0.0353429 
196 1 0.0520917 0.20732 2.50278 -0 0 -2 0.025 0 0 0 0.163625 
163 1 0.107222 0.236676 2.50843 -0 0 -2 0.025 0 0 0 0.163625 
271 1 0.0988759 0.311205 2.48176 -0 0 -2 0.015 0 0 0 0.0353429 
274 1 0.108637 0.339608 2.4811 -0 0 -2 0.015 0 0 0 0.0353429 
183 1 0.0737852 0.400871 2.48543 -0 0 -2 0.025 0 0 0 0.163625 
281 1 0.0312292 0.432852 2.49863 -0 0 -2 0.015 0 0 0 0.0353429 
188 1 0.140755 0.442261 2.50441 -0 0 -2 0.025 0 0 0 0.163625 
155 1 0.141768 0.302505 2.50915 -0 0 -2 0.025 0 0 0 0.163625 
298 1 0.114914 0.351461 2.53645 -0 0 -2 0.015 0 0 0 0.0353429 
268 1 0.140569 0.388665 2.51804 -0 0 -2 0.015 0 0 0 0.0353429 
197 1 0.0581936 0.42558 2.53616 -0 0 -2 0.025 0 0 0 0.163625 
280 1 0.0367193 0.456786 2.51977 -0 0 -2 0.015 0 0 0 0.0353429 
273 1 0.0779061 0.461373 2.53784 -0 0 -2 0.015 0 0 0 0.0353429 
267 1 0.101401 0.464343 2.51738 -0 0 -2 0.015 0 0 0 0.0353429 
218 1 0.0164873 0.217058 2.54437 -0 0 -2 0.015 0 0 0 0.0353429 
238 1 0.105443 0.363301 2.56441 -0 0 -2 0.015 0 0 0 0.0353429 
167 1 0.118751 0.462916 2.56872 -0 0 -2 0.025 0 0 0 0.163625 
164 1 0.0527853 0.200711 2.58068 -0 0 -2 0.025 0 0 0 0.163625 
261 1 0.0852607 0.230216 2.5989 -0 0 -2 0.015 0 0 0 0.0353429 
160 1 0.118533 0.219824 2.57438 -0 0 -2 0.025 0 0 0 0.163625 
215 1 0.0767991 0.264474 2.58377 -0 0 -2 0.015 0 0 0 0.0353429 
297 1 0.141884 0.27502 2.58154 -0 0 -2 0.015 0 0 0 0.0353429 
195 1 0.147227 0.360394 2.57052 -0 0 -2 0.025 0 0 0 0.163625 
292 1 0.0287531 0.422464 2.58368 -0 0 -2 0.015 0 0 0 0.0353429 
193 1 0.102412 0.413293 2.59652 -0 0 -2 0.025 0 0 0 0.163625 
198 1 0.0617553 0.466461 2.59662 -0 0 -2 0.025 0 0 0 0.163625 
219 1 0.0278687 0.201322 2.62655 -0 0 -2 0.015 0 0 0 0.0353429 
239 1 0.126558 0.237343 2.62331 -0 0 -2 0.015 0 0 0 0.0353429 
186 1 0.10183 0.291927 2.61608 -0 0 -2 0.025 0 0 0 0.163625 
243 1 0.113126 0.365244 2.6015 -0 0 -2 0.015 0 0 0 0.0353429 
244 1 0.0497502 0.427977 2.61971 -0 0 -2 0.015 0 0 0 0.0353429 
266 1 0.0917737 0.36017 2.63311 -0 0 -2 0.015 0 0 0 0.0353429 
