ITEM: TIMESTEP
69600
ITEM: NUMBER OF ATOMS
900
ITEM: BOX BOUNDS mm mm mm
-1 1
-1 1
-1.72408 2.85
ITEM: ATOMS id type x y z vx vy vz radius fx fy fz mass 
68 1 -0.0997213 -0.102729 -1.47414 0 -0.5 -8.73962 0.015 0 0 -0.346714 0.0353429 
45 1 -0.0943793 -0.151762 -1.42901 0 -0.5 -8.6888 0.025 0 0 -1.60516 0.163625 
122 1 -0.0673639 -0.10099 -1.42804 0.00811842 -0.517403 -8.68718 0.015 0 0 -0.346714 0.0353429 
137 1 -0.091627 -0.0487155 -1.45324 -0.00924354 -0.479856 -8.71676 0.015 0 0 -0.346714 0.0353429 
33 1 -0.129286 0.0886047 -1.43866 0 -0.5 -8.69969 0.025 0 0 -1.60516 0.163625 
43 1 -0.116198 -0.000214586 -1.39554 0 -0.5 -8.65093 0.025 0 0 -1.60516 0.163625 
111 1 -0.0487783 0.1321 -1.39459 0 -0.5 -8.64986 0.015 0 0 -0.346714 0.0353429 
119 1 -0.0370509 -0.162811 -1.3823 0 -0.5 -8.63593 0.015 0 0 -0.346714 0.0353429 
78 1 -0.0422369 0.0959551 -1.36997 0 -0.5 -8.6219 0.015 0 0 -0.346714 0.0353429 
75 1 -0.0493142 -0.112328 -1.35482 0 -0.5 -8.60463 0.015 0 0 -0.346714 0.0353429 
89 1 -0.129145 -0.0836921 -1.34466 0 -0.5 -8.59306 0.015 0 0 -0.346714 0.0353429 
220 1 -0.00470087 -0.166554 -1.31933 -0.0669262 -0.554313 -8.55939 0.015 0 0 -0.346714 0.0353429 
59 1 -0.0865612 0.0448678 -1.32219 0 -0.5 -8.56735 0.015 0 0 -0.346714 0.0353429 
92 1 -0.131017 0.139327 -1.29839 0 -0.5 -8.54008 0.015 0 0 -0.346714 0.0353429 
26 1 -0.0187862 0.0174053 -1.24488 0.14857 -0.341553 -8.50913 0.025 0 0 -1.60516 0.163625 
151 1 -0.0686397 0.070527 -1.21129 0 -0.5 -8.43943 0.015 0 0 -0.346714 0.0353429 
8 1 -0.104188 -0.144537 -1.18377 0 -0.5 -8.40735 0.025 0 0 -1.60516 0.163625 
98 1 -0.147127 -0.0115582 -1.21037 0 -0.5 -8.43835 0.015 0 0 -0.346714 0.0353429 
3 1 -0.141317 0.0533879 -1.17157 0 -0.5 -8.39313 0.025 0 0 -1.60516 0.163625 
72 1 -0.105673 0.090796 -1.15054 0 -0.5 -8.3685 0.015 0 0 -0.346714 0.0353429 
100 1 -0.0681017 -0.076079 -1.12022 0 -0.5 -8.33289 0.015 0 0 -0.346714 0.0353429 
140 1 -0.125739 -0.0344436 -1.12781 0 -0.5 -8.34182 0.015 0 0 -0.346714 0.0353429 
40 1 -0.104474 0.142198 -1.12606 0 -0.5 -8.33976 0.025 0 0 -1.60516 0.163625 
118 1 -0.0372647 0.125681 -1.11223 0 -0.5 -8.32348 0.015 0 0 -0.346714 0.0353429 
117 1 -0.0596227 -0.132979 -1.0888 0 -0.5 -8.29581 0.015 0 0 -0.346714 0.0353429 
148 1 -0.214523 0.0292999 -1.0787 -0.171679 -0.397353 -8.34515 0.015 0 0 -0.346714 0.0353429 
51 1 -0.165537 -0.123845 -1.04877 -0.0265052 -0.519812 -8.24391 0.025 0 0 -1.60516 0.163625 
282 1 -0.0666692 -0.104634 -1.04005 -0.2609 -0.673185 -8.22373 0.015 0 0 -0.346714 0.0353429 
90 1 -0.146535 0.143667 -0.999692 0 -0.5 -8.18977 0.015 0 0 -0.346714 0.0353429 
60 1 -0.0770515 -0.124072 -0.969467 0 -0.5 -8.15347 0.015 0 0 -0.346714 0.0353429 
11 1 -0.0933895 0.0466454 -0.982532 0.022917 -0.457889 -8.18263 0.025 0 0 -1.60516 0.163625 
50 1 -0.130982 0.100355 -0.967259 0 -0.5 -8.15082 0.025 0 0 -1.60516 0.163625 
74 1 -0.0790012 0.0878934 -0.91747 0 -0.5 -8.09069 0.015 0 0 -0.346714 0.0353429 
44 1 -0.125916 -0.132403 -0.879647 0 -0.5 -8.04468 0.025 0 0 -1.60516 0.163625 
105 1 -0.278091 0.0623318 -0.903815 -0.321192 -0.368687 -8.06634 0.015 0 0 -0.346714 0.0353429 
76 1 -0.0202065 0.11607 -0.89478 0 -0.5 -8.06312 0.015 0 0 -0.346714 0.0353429 
36 1 -0.103411 -0.0856875 -0.84899 0 -0.5 -8.0072 0.025 0 0 -1.60516 0.163625 
29 1 -0.0788351 0.130182 -0.857561 0 -0.5 -8.0177 0.025 0 0 -1.60516 0.163625 
54 1 -0.183362 -0.0586206 -0.815276 -0.0956439 -0.529683 -7.9559 0.015 0 0 -0.346714 0.0353429 
114 1 -0.0721328 -0.0554559 -0.798336 -0.00040144 -0.499666 -7.94499 0.015 0 0 -0.346714 0.0353429 
73 1 -0.0639552 -0.106233 -0.75509 0 -0.5 -7.89135 0.015 0 0 -0.346714 0.0353429 
113 1 -0.118506 0.165198 -0.764187 0 -0.5 -7.90263 0.015 0 0 -0.346714 0.0353429 
2 1 -0.110349 0.0410712 -0.746899 0 -0.5 -7.88114 0.025 0 0 -1.60516 0.163625 
12 1 -0.0363281 0.150336 -0.725252 0 -0.5 -7.85417 0.025 0 0 -1.60516 0.163625 
146 1 -0.109965 -0.119084 -0.723068 0 -0.5 -7.85142 0.015 0 0 -0.346714 0.0353429 
88 1 -0.0666498 0.107919 -0.699936 0 -0.5 -7.82248 0.015 0 0 -0.346714 0.0353429 
99 1 -0.146283 -0.0544829 -0.665926 0 -0.5 -7.77971 0.015 0 0 -0.346714 0.0353429 
57 1 -0.120673 -0.00293948 -0.684247 0 -0.5 -7.80276 0.015 0 0 -0.346714 0.0353429 
10 1 -0.0589056 0.134042 -0.662393 0.0635655 -0.375939 -7.8364 0.025 0 0 -1.60516 0.163625 
66 1 -0.0281121 -0.0671772 -0.604085 0 -0.5 -7.70133 0.015 0 0 -0.346714 0.0353429 
19 1 -0.0715757 -0.0447476 -0.60987 0 -0.5 -7.70868 0.025 0 0 -1.60516 0.163625 
83 1 -0.108229 -0.024854 -0.615336 0 -0.5 -7.71565 0.015 0 0 -0.346714 0.0353429 
34 1 -0.138562 0.114511 -0.623598 0 -0.5 -7.72615 0.025 0 0 -1.60516 0.163625 
81 1 -0.0270019 0.135527 -0.584047 0.07636 -0.438847 -7.64884 0.015 0 0 -0.346714 0.0353429 
71 1 -0.145263 0.158198 -0.591997 0 -0.5 -7.68593 0.015 0 0 -0.346714 0.0353429 
67 1 -0.0183057 -0.111611 -0.566169 0 -0.5 -7.65287 0.015 0 0 -0.346714 0.0353429 
24 1 -0.138394 -0.0845481 -0.547594 0 -0.5 -7.62903 0.025 0 0 -1.60516 0.163625 
133 1 -0.127566 0.0319444 -0.534484 0 -0.5 -7.61215 0.015 0 0 -0.346714 0.0353429 
95 1 -0.10482 0.119312 -0.529242 0 -0.5 -7.60538 0.015 0 0 -0.346714 0.0353429 
39 1 -0.0696793 0.16901 -0.529076 0 -0.5 -7.60519 0.025 0 0 -1.60516 0.163625 
103 1 -0.135939 -0.0402777 -0.492237 0 -0.5 -7.55751 0.015 0 0 -0.346714 0.0353429 
70 1 -0.107191 -0.0580756 -0.473909 0 -0.5 -7.53367 0.015 0 0 -0.346714 0.0353429 
143 1 -0.11631 0.177682 -0.479177 0 -0.5 -7.54054 0.015 0 0 -0.346714 0.0353429 
28 1 -0.0685748 -0.0819299 -0.436277 0 -0.5 -7.48453 0.025 0 0 -1.60516 0.163625 
97 1 -0.0338223 -0.054856 -0.449767 0 -0.5 -7.50218 0.015 0 0 -0.346714 0.0353429 
115 1 -0.076478 -0.0195689 -0.449162 0 -0.5 -7.5014 0.015 0 0 -0.346714 0.0353429 
85 1 -0.13789 0.102015 -0.445567 0 -0.5 -7.49669 0.015 0 0 -0.346714 0.0353429 
134 1 -0.137197 0.142367 -0.421562 0 -0.5 -7.4652 0.015 0 0 -0.346714 0.0353429 
126 1 -0.127298 0.0206459 -0.39992 -0.0288748 -0.539424 -7.42003 0.015 0 0 -0.346714 0.0353429 
77 1 -0.0297287 0.170749 -0.411049 0 -0.5 -7.45137 0.015 0 0 -0.346714 0.0353429 
120 1 -0.148569 0.191261 -0.408053 0 -0.5 -7.44744 0.015 0 0 -0.346714 0.0353429 
96 1 -0.131998 -0.0549186 -0.382125 0 -0.5 -7.41321 0.015 0 0 -0.346714 0.0353429 
38 1 -0.121616 -0.0138121 -0.351887 0 -0.5 -7.37308 0.025 0 0 -1.60516 0.163625 
130 1 -0.0642546 -0.0195593 -0.295627 0 -0.5 -7.29784 0.015 0 0 -0.346714 0.0353429 
23 1 -0.134189 0.122519 -0.296936 0 -0.5 -7.29961 0.025 0 0 -1.60516 0.163625 
31 1 -0.140814 -0.0771227 -0.241675 0 -0.5 -7.22495 0.025 0 0 -1.60516 0.163625 
150 1 -0.100106 -0.0427931 -0.262811 0 -0.5 -7.2536 0.015 0 0 -0.346714 0.0353429 
18 1 -0.106015 0.187686 -0.261006 0 -0.5 -7.25115 0.025 0 0 -1.60516 0.163625 
4 1 -0.0330873 0.200857 -0.262153 0 -0.5 -7.25272 0.025 0 0 -1.60516 0.163625 
106 1 -0.153054 0.327096 -0.247414 -0.0998962 -0.230395 -7.33369 0.015 0 0 -0.346714 0.0353429 
110 1 -0.0868918 -0.0875835 -0.20359 0 -0.5 -7.17306 0.015 0 0 -0.346714 0.0353429 
93 1 -0.0244706 -0.0758422 -0.184332 0 -0.5 -7.14667 0.015 0 0 -0.346714 0.0353429 
136 1 -0.0832352 0.131008 -0.179328 0 -0.5 -7.1398 0.015 0 0 -0.346714 0.0353429 
17 1 -0.134634 0.0380265 -0.174622 0 -0.5 -7.13333 0.025 0 0 -1.60516 0.163625 
30 1 -0.0481876 0.158857 -0.168131 0 -0.5 -7.1244 0.025 0 0 -1.60516 0.163625 
109 1 -0.0676248 0.20608 -0.169638 0 -0.5 -7.12646 0.015 0 0 -0.346714 0.0353429 
1 1 -0.152687 0.420379 -0.136506 -0.021394 -0.0706631 -7.19865 0.025 0 0 -1.60516 0.163625 
108 1 -0.089121 -0.0551765 -0.109686 0 -0.5 -7.04347 0.015 0 0 -0.346714 0.0353429 
69 1 -0.020474 -0.0349175 -0.0784464 0 -0.5 -6.99981 0.015 0 0 -0.346714 0.0353429 
149 1 -0.0155767 0.0635887 -0.0578212 0.199959 -0.45766 -7.13341 0.015 0 0 -0.346714 0.0353429 
35 1 -0.146938 0.138792 -0.0691503 0 -0.5 -6.98677 0.025 0 0 -1.60516 0.163625 
102 1 -0.11709 -0.0551005 -0.0260061 0 -0.5 -6.92594 0.015 0 0 -0.346714 0.0353429 
139 1 -0.104092 0.00257199 -0.0262242 0 -0.5 -6.92624 0.015 0 0 -0.346714 0.0353429 
144 1 -0.0691235 0.00547411 -0.0275291 0 -0.5 -6.9281 0.015 0 0 -0.346714 0.0353429 
22 1 -0.102489 0.0703065 -0.0332874 0 -0.5 -6.93624 0.025 0 0 -1.60516 0.163625 
14 1 -0.0571303 -0.0630245 -0.0110072 0 -0.5 -6.90466 0.025 0 0 -1.60516 0.163625 
55 1 -0.0960008 0.176403 -0.00446951 -7.52477e-06 -0.49998 -6.89537 0.015 0 0 -0.346714 0.0353429 
141 1 -0.136875 0.0182642 0.00945696 0 -0.5 -6.87552 0.015 0 0 -0.346714 0.0353429 
21 1 -0.0470047 0.2215 0.0296194 0 -0.5 -6.84668 0.025 0 0 -1.60516 0.163625 
87 1 -0.113676 0.139588 0.0500566 0 -0.5 -6.81735 0.015 0 0 -0.346714 0.0353429 
94 1 -0.286104 0.194689 0.0414937 -0.356499 -0.190573 -6.88291 0.015 0 0 -0.346714 0.0353429 
107 1 -0.141609 -0.0660523 0.0865281 0 -0.5 -6.76467 0.015 0 0 -0.346714 0.0353429 
112 1 -0.073338 0.0172787 0.122572 0 -0.5 -6.71218 0.015 0 0 -0.346714 0.0353429 
84 1 -0.116406 0.0977863 0.117811 0 -0.5 -6.71915 0.015 0 0 -0.346714 0.0353429 
147 1 -0.100309 0.209431 0.108386 0 -0.5 -6.73288 0.015 0 0 -0.346714 0.0353429 
142 1 -0.0724928 -0.0412522 0.152413 0 -0.5 -6.66843 0.015 0 0 -0.346714 0.0353429 
145 1 -0.0934491 0.174113 0.155353 0 -0.5 -6.66412 0.015 0 0 -0.346714 0.0353429 
47 1 -0.140465 0.18145 0.152546 0 -0.5 -6.66824 0.025 0 0 -1.60516 0.163625 
6 1 -0.0621738 0.0135043 0.183437 0.101461 -0.428163 -6.62761 0.025 0 0 -1.60516 0.163625 
80 1 -0.102893 0.144893 0.17716 0 -0.5 -6.63194 0.015 0 0 -0.346714 0.0353429 
135 1 -0.140472 0.0268926 0.217086 0 -0.5 -6.57259 0.015 0 0 -0.346714 0.0353429 
62 1 -0.0849655 0.234406 0.216706 0 -0.5 -6.57318 0.015 0 0 -0.346714 0.0353429 
32 1 -0.178155 -0.0665075 0.220665 -0.0613285 -0.540948 -6.56467 0.025 0 0 -1.60516 0.163625 
138 1 -0.0317395 -0.0386844 0.243297 0 -0.5 -6.53335 0.015 0 0 -0.346714 0.0353429 
128 1 -0.145291 0.111677 0.245592 0 -0.5 -6.52991 0.015 0 0 -0.346714 0.0353429 
15 1 -0.0729464 0.121459 0.232739 0.0430154 -0.390763 -6.52041 0.025 0 0 -1.60516 0.163625 
280 1 -0.105912 0.437142 0.229239 -0.323138 -0.0374805 -6.63526 0.015 0 0 -0.346714 0.0353429 
121 1 -0.0679495 0.216078 0.273259 0 -0.5 -6.48822 0.015 0 0 -0.346714 0.0353429 
129 1 -0.0553418 -0.0148006 0.324072 0 -0.5 -6.41092 0.015 0 0 -0.346714 0.0353429 
101 1 -0.102489 0.0778245 0.338666 0 -0.5 -6.38855 0.015 0 0 -0.346714 0.0353429 
37 1 -0.0716655 0.180665 0.337899 0 -0.5 -6.38973 0.025 0 0 -1.60516 0.163625 
61 1 -0.0231802 -0.0450652 0.359954 0 -0.5 -6.35579 0.015 0 0 -0.346714 0.0353429 
79 1 -0.0179342 -0.0110157 0.360074 0 -0.5 -6.35559 0.015 0 0 -0.346714 0.0353429 
13 1 -0.146779 0.0678211 0.344296 0 -0.5 -6.37992 0.025 0 0 -1.60516 0.163625 
91 1 -0.124131 0.174132 0.360711 0 -0.5 -6.35461 0.015 0 0 -0.346714 0.0353429 
46 1 -0.032303 0.242569 0.34512 0 -0.5 -6.37864 0.025 0 0 -1.60516 0.163625 
52 1 -0.100497 -0.0295105 0.371369 0 -0.5 -6.33813 0.015 0 0 -0.346714 0.0353429 
5 1 -0.137704 -0.00158819 0.386185 0 -0.5 -6.31517 0.025 0 0 -1.60516 0.163625 
7 1 -0.0712578 0.0374494 0.390792 0 -0.5 -6.30801 0.025 0 0 -1.60516 0.163625 
20 1 -0.124339 0.125888 0.381577 0 -0.5 -6.32234 0.025 0 0 -1.60516 0.163625 
86 1 -0.142939 0.167059 0.439316 0 -0.5 -6.23208 0.015 0 0 -0.346714 0.0353429 
9 1 -0.0320364 0.201159 0.444056 0 -0.5 -6.22463 0.025 0 0 -1.60516 0.163625 
65 1 -0.147981 -0.0249033 0.482265 0 -0.5 -6.1641 0.015 0 0 -0.346714 0.0353429 
58 1 -0.0969698 0.0718907 0.463297 0 -0.5 -6.19422 0.015 0 0 -0.346714 0.0353429 
124 1 -0.136447 0.197377 0.46312 0 -0.5 -6.19451 0.015 0 0 -0.346714 0.0353429 
41 1 -0.107908 0.252758 0.478698 0 -0.5 -6.16979 0.025 0 0 -1.60516 0.163625 
131 1 -0.025873 0.24004 0.520598 0 -0.5 -6.10279 0.015 0 0 -0.346714 0.0353429 
104 1 -0.138444 0.139217 0.53376 0 -0.5 -6.0816 0.015 0 0 -0.346714 0.0353429 
132 1 -0.0234712 0.00816815 0.55953 0 -0.5 -6.03991 0.015 0 0 -0.346714 0.0353429 
48 1 -0.144727 0.065852 0.558431 0 -0.5 -6.04167 0.025 0 0 -1.60516 0.163625 
53 1 -0.106432 0.11034 0.561342 0 -0.5 -6.03696 0.015 0 0 -0.346714 0.0353429 
49 1 -0.0613084 -0.0142895 0.586598 0 -0.5 -5.99576 0.025 0 0 -1.60516 0.163625 
16 1 -0.129915 0.209079 0.590864 0 -0.5 -5.9888 0.025 0 0 -1.60516 0.163625 
82 1 -0.0851821 0.199627 0.599536 0 -0.5 -5.97457 0.015 0 0 -0.346714 0.0353429 
27 1 -0.0637137 0.235885 0.591753 0 -0.5 -5.98732 0.025 0 0 -1.60516 0.163625 
63 1 -0.147823 0.265713 0.612285 0 -0.5 -5.95358 0.015 0 0 -0.346714 0.0353429 
127 1 -0.0304133 0.0316212 0.636088 0 -0.5 -5.91424 0.015 0 0 -0.346714 0.0353429 
56 1 -0.11556 0.263119 0.635903 0 -0.5 -5.91453 0.015 0 0 -0.346714 0.0353429 
25 1 -0.104447 0.0197853 0.651496 0 -0.5 -5.88863 0.025 0 0 -1.60516 0.163625 
42 1 -0.132916 0.112796 0.671098 0 -0.5 -5.85587 0.025 0 0 -1.60516 0.163625 
123 1 -0.11925 0.169492 0.67607 0 -0.5 -5.84753 0.015 0 0 -0.346714 0.0353429 
64 1 -0.145219 0.233177 0.694906 0 -0.5 -5.81584 0.015 0 0 -0.346714 0.0353429 
125 1 -0.0960051 0.225127 0.697424 0 -0.5 -5.81163 0.015 0 0 -0.346714 0.0353429 
392 1 -0.0201822 -0.0166234 0.71747 0 -0.5 -5.77768 0.015 0 0 -0.346714 0.0353429 
361 1 -0.0655065 0.0111594 0.714111 0 -0.5 -5.78337 0.015 0 0 -0.346714 0.0353429 
375 1 -0.132504 0.0482129 0.72681 0 -0.5 -5.76179 0.015 0 0 -0.346714 0.0353429 
391 1 -0.0665259 0.21019 0.715956 0 -0.5 -5.78023 0.015 0 0 -0.346714 0.0353429 
353 1 -0.0778865 0.0645101 0.752517 0 -0.5 -5.71784 0.015 0 0 -0.346714 0.0353429 
370 1 -0.0476722 0.282061 0.752479 0 -0.5 -5.71794 0.015 0 0 -0.346714 0.0353429 
449 1 -0.121601 -0.0110298 0.783544 0 -0.5 -5.66438 0.015 0 0 -0.346714 0.0353429 
432 1 -0.110656 0.124023 0.768887 0 -0.5 -5.68969 0.015 0 0 -0.346714 0.0353429 
423 1 -0.035066 0.228352 0.766678 0 -0.5 -5.69351 0.015 0 0 -0.346714 0.0353429 
348 1 -0.0489537 -0.00171046 0.807262 -0.0150753 -0.514502 -5.62023 0.025 0 0 -1.60516 0.163625 
409 1 -0.1116 0.0962793 0.816056 0 -0.5 -5.60777 0.015 0 0 -0.346714 0.0353429 
434 1 -0.110177 0.256235 0.813202 0 -0.5 -5.61278 0.015 0 0 -0.346714 0.0353429 
304 1 -0.147639 0.222299 0.847752 0 -0.5 -5.55205 0.025 0 0 -1.60516 0.163625 
327 1 -0.047146 0.259396 0.881613 0 -0.5 -5.49192 0.025 0 0 -1.60516 0.163625 
368 1 -0.0426125 0.0341031 0.909269 0 -0.5 -5.44228 0.015 0 0 -0.346714 0.0353429 
414 1 -0.12165 0.166412 0.888073 0 -0.5 -5.48034 0.015 0 0 -0.346714 0.0353429 
416 1 -0.148865 0.187752 0.90306 0 -0.5 -5.45346 0.015 0 0 -0.346714 0.0353429 
422 1 -0.0856494 0.250628 0.907102 0 -0.5 -5.4462 0.015 0 0 -0.346714 0.0353429 
307 1 -0.141488 0.0283164 0.94245 0 -0.5 -5.38214 0.025 0 0 -1.60516 0.163625 
328 1 -0.101567 0.0593596 0.928698 0 -0.5 -5.40716 0.025 0 0 -1.60516 0.163625 
342 1 -0.0942786 0.210007 0.930145 0 -0.5 -5.40451 0.025 0 0 -1.60516 0.163625 
441 1 -0.0895132 0.288957 0.942927 0 -0.5 -5.38126 0.015 0 0 -0.346714 0.0353429 
440 1 -0.074831 0.0106332 0.95844 0 -0.5 -5.35291 0.015 0 0 -0.346714 0.0353429 
352 1 -0.144025 0.247939 0.971376 0 -0.5 -5.32917 0.015 0 0 -0.346714 0.0353429 
330 1 -0.125578 0.304028 0.976638 0 -0.5 -5.31946 0.025 0 0 -1.60516 0.163625 
388 1 -0.0545692 0.0746855 0.991968 0 -0.5 -5.29111 0.015 0 0 -0.346714 0.0353429 
323 1 -0.131477 0.143813 0.989597 0 -0.5 -5.29552 0.025 0 0 -1.60516 0.163625 
406 1 -0.0920408 0.247666 1.0019 0 -0.5 -5.27267 0.015 0 0 -0.346714 0.0353429 
331 1 -0.138106 0.015831 1.06535 0 -0.5 -5.15328 0.025 0 0 -1.60516 0.163625 
418 1 -0.0554251 0.0209403 1.04947 0 -0.5 -5.18339 0.015 0 0 -0.346714 0.0353429 
395 1 -0.110093 0.0718721 1.05781 0 -0.5 -5.1676 0.015 0 0 -0.346714 0.0353429 
318 1 -0.126425 0.221158 1.04663 0 -0.5 -5.18879 0.025 0 0 -1.60516 0.163625 
336 1 -0.025747 0.254523 1.05677 0 -0.5 -5.16956 0.025 0 0 -1.60516 0.163625 
313 1 -0.0392615 0.0596895 1.08128 0 -0.5 -5.12287 0.025 0 0 -1.60516 0.163625 
374 1 -0.133879 0.281467 1.08408 0 -0.5 -5.11747 0.015 0 0 -0.346714 0.0353429 
315 1 -0.0970947 0.126406 1.10944 0 -0.5 -5.06862 0.025 0 0 -1.60516 0.163625 
445 1 -0.0938501 0.196643 1.12814 0 -0.5 -5.03232 0.015 0 0 -0.346714 0.0353429 
407 1 -0.0713596 0.254089 1.11118 0 -0.5 -5.06528 0.015 0 0 -0.346714 0.0353429 
310 1 -0.0919271 0.291993 1.10595 0 -0.5 -5.07539 0.025 0 0 -1.60516 0.163625 
377 1 -0.128279 0.0437203 1.15622 0 -0.5 -4.97729 0.015 0 0 -0.346714 0.0353429 
386 1 -0.118095 0.26511 1.15143 0 -0.5 -4.9867 0.015 0 0 -0.346714 0.0353429 
439 1 -0.132801 0.159897 1.19233 0 -0.5 -4.90557 0.015 0 0 -0.346714 0.0353429 
344 1 -0.147144 0.197445 1.17564 0 -0.5 -4.93883 0.025 0 0 -1.60516 0.163625 
302 1 -0.0567477 0.0413163 1.19836 0 -0.5 -4.89351 0.025 0 0 -1.60516 0.163625 
401 1 -0.0913429 0.0727804 1.19596 0 -0.5 -4.89832 0.015 0 0 -0.346714 0.0353429 
314 1 -0.136534 0.109236 1.2092 0 -0.5 -4.87173 0.025 0 0 -1.60516 0.163625 
431 1 -0.13363 0.0696506 1.24364 0 -0.5 -4.80188 0.015 0 0 -0.346714 0.0353429 
355 1 -0.0483468 0.0887585 1.23483 0 -0.5 -4.81984 0.015 0 0 -0.346714 0.0353429 
354 1 -0.0927402 0.257498 1.24172 0 -0.5 -4.80581 0.015 0 0 -0.346714 0.0353429 
413 1 -0.0512121 0.258816 1.22739 0 -0.5 -4.83494 0.015 0 0 -0.346714 0.0353429 
442 1 -0.149932 0.318171 1.229 0 -0.5 -4.83171 0.015 0 0 -0.346714 0.0353429 
408 1 -0.087028 0.326439 1.23994 0 -0.5 -4.80944 0.015 0 0 -0.346714 0.0353429 
446 1 -0.116317 0.226626 1.26947 0 -0.5 -4.74881 0.015 0 0 -0.346714 0.0353429 
411 1 -0.0485728 0.309056 1.279 0 -0.5 -4.72909 0.015 0 0 -0.346714 0.0353429 
382 1 -0.104669 0.349751 1.25805 0.026541 -0.439017 -4.84503 0.015 0 0 -0.346714 0.0353429 
427 1 -0.0919935 0.403417 1.28846 0.0988458 -0.172977 -4.88226 0.015 0 0 -0.346714 0.0353429 
350 1 -0.147794 0.0793949 1.33384 0 -0.5 -4.61392 0.025 0 0 -1.60516 0.163625 
399 1 -0.074527 0.0920481 1.31986 0 -0.5 -4.64355 0.015 0 0 -0.346714 0.0353429 
335 1 -0.126459 0.140418 1.33358 0 -0.5 -4.61451 0.025 0 0 -1.60516 0.163625 
436 1 -0.0854574 0.146951 1.31907 0 -0.5 -4.64522 0.015 0 0 -0.346714 0.0353429 
341 1 -0.148816 0.260228 1.32232 0 -0.5 -4.63835 0.025 0 0 -1.60516 0.163625 
385 1 -0.0696212 0.269365 1.34168 0 -0.5 -4.59725 0.015 0 0 -0.346714 0.0353429 
384 1 -0.177773 0.354344 1.33566 -0.135564 -0.440896 -4.62835 0.015 0 0 -0.346714 0.0353429 
389 1 -0.0230912 0.333676 1.32372 0 -0.5 -4.63541 0.015 0 0 -0.346714 0.0353429 
324 1 -0.0498553 0.0467032 1.34558 0 -0.5 -4.58891 0.025 0 0 -1.60516 0.163625 
437 1 -0.0723044 0.123232 1.35461 0 -0.5 -4.56958 0.015 0 0 -0.346714 0.0353429 
367 1 -0.106717 0.103831 1.39662 0 -0.5 -4.47845 0.015 0 0 -0.346714 0.0353429 
394 1 -0.145405 0.298684 1.38305 0 -0.5 -4.50807 0.015 0 0 -0.346714 0.0353429 
426 1 -0.0179373 0.328964 1.39614 0 -0.5 -4.47953 0.015 0 0 -0.346714 0.0353429 
424 1 -0.135652 0.333538 1.40443 -0.0730123 -0.390635 -4.4697 0.015 0 0 -0.346714 0.0353429 
358 1 -0.127277 0.0707924 1.41357 0 -0.5 -4.44117 0.015 0 0 -0.346714 0.0353429 
326 1 -0.145564 0.200454 1.41562 0 -0.5 -4.43666 0.025 0 0 -1.60516 0.163625 
319 1 -0.0687817 0.350025 1.41041 0 -0.5 -4.44813 0.025 0 0 -1.60516 0.163625 
433 1 -0.118613 0.0566652 1.46685 0 -0.5 -4.32188 0.015 0 0 -0.346714 0.0353429 
376 1 -0.0824761 0.115772 1.43772 0 -0.5 -4.38751 0.015 0 0 -0.346714 0.0353429 
420 1 -0.037203 0.0648256 1.47109 0 -0.5 -4.31227 0.015 0 0 -0.346714 0.0353429 
402 1 -0.101682 0.100287 1.47518 0 -0.5 -4.30295 0.015 0 0 -0.346714 0.0353429 
306 1 -0.116739 0.278034 1.47384 0 -0.5 -4.30599 0.025 0 0 -1.60516 0.163625 
371 1 -0.0449321 0.328104 1.49793 0 -0.5 -4.25076 0.015 0 0 -0.346714 0.0353429 
412 1 -0.0937388 0.348584 1.48051 0 -0.5 -4.29078 0.015 0 0 -0.346714 0.0353429 
363 1 -0.0911777 0.177327 1.50171 0 -0.5 -4.24203 0.015 0 0 -0.346714 0.0353429 
360 1 -0.116599 0.201221 1.49985 0 -0.5 -4.24634 0.015 0 0 -0.346714 0.0353429 
397 1 -0.0557758 0.289618 1.50602 0 -0.5 -4.23202 0.015 0 0 -0.346714 0.0353429 
322 1 -0.131733 0.0875637 1.53658 0 -0.5 -4.1606 0.025 0 0 -1.60516 0.163625 
373 1 -0.136858 0.234184 1.54679 0 -0.5 -4.13647 0.015 0 0 -0.346714 0.0353429 
396 1 -0.0958984 0.25466 1.53892 0 -0.5 -4.15511 0.015 0 0 -0.346714 0.0353429 
369 1 -0.138958 0.292563 1.54992 0 -0.5 -4.12902 0.015 0 0 -0.346714 0.0353429 
381 1 -0.0827007 0.323114 1.5328 0 -0.5 -4.16953 0.015 0 0 -0.346714 0.0353429 
383 1 -0.0262689 0.310803 1.55113 0 -0.5 -4.12617 0.015 0 0 -0.346714 0.0353429 
308 1 -0.0790676 0.10272 1.576 -0.0168546 -0.516386 -4.06497 0.025 0 0 -1.60516 0.163625 
438 1 -0.0987495 0.186333 1.57729 0 -0.5 -4.06348 0.015 0 0 -0.346714 0.0353429 
356 1 -0.111476 0.229564 1.58511 0 -0.5 -4.04455 0.015 0 0 -0.346714 0.0353429 
340 1 -0.149237 0.357237 1.58455 0 -0.5 -4.04592 0.025 0 0 -1.60516 0.163625 
415 1 -0.127182 0.13813 1.60013 0 -0.5 -4.00796 0.015 0 0 -0.346714 0.0353429 
343 1 -0.140775 0.196899 1.60801 0 -0.5 -3.98863 0.025 0 0 -1.60516 0.163625 
443 1 -0.0906469 0.284658 1.59788 0 -0.5 -4.01345 0.015 0 0 -0.346714 0.0353429 
349 1 -0.116564 0.316594 1.61243 0 -0.5 -3.97775 0.025 0 0 -1.60516 0.163625 
351 1 -0.0409452 0.315112 1.61759 0 -0.5 -3.96499 0.015 0 0 -0.346714 0.0353429 
390 1 -0.0988461 0.0985899 1.64171 0 -0.5 -3.90486 0.015 0 0 -0.346714 0.0353429 
448 1 -0.0329565 0.10757 1.66627 0 -0.5 -3.84266 0.015 0 0 -0.346714 0.0353429 
347 1 -0.0548177 0.14489 1.67263 0 -0.5 -3.82638 0.025 0 0 -1.60516 0.163625 
378 1 -0.121409 0.193198 1.68008 0 -0.5 -3.80725 0.015 0 0 -0.346714 0.0353429 
312 1 -0.134707 0.252718 1.68131 0 -0.5 -3.80411 0.025 0 0 -1.60516 0.163625 
417 1 -0.0160313 0.352054 1.68129 0 -0.5 -3.80411 0.015 0 0 -0.346714 0.0353429 
346 1 -0.152613 0.403828 1.67634 -0.0151472 -0.325165 -3.86254 0.025 0 0 -1.60516 0.163625 
419 1 -0.111609 0.0895188 1.70005 0 -0.5 -3.75545 0.015 0 0 -0.346714 0.0353429 
362 1 -0.0154426 0.139609 1.69688 0 -0.5 -3.76369 0.015 0 0 -0.346714 0.0353429 
359 1 -0.107325 0.297399 1.68949 0 -0.5 -3.78292 0.015 0 0 -0.346714 0.0353429 
303 1 -0.0551599 0.316479 1.69734 0 -0.5 -3.76251 0.025 0 0 -1.60516 0.163625 
334 1 -0.103439 0.352448 1.709 0 -0.5 -3.732 0.025 0 0 -1.60516 0.163625 
421 1 -0.0930175 0.169542 1.71567 0 -0.5 -3.71444 0.015 0 0 -0.346714 0.0353429 
320 1 -0.0648735 0.128929 1.77194 0 -0.5 -3.56268 0.025 0 0 -1.60516 0.163625 
325 1 -0.117824 0.213025 1.75618 0 -0.5 -3.60585 0.025 0 0 -1.60516 0.163625 
365 1 -0.141361 0.280353 1.75242 0.0322739 -0.84426 -3.52726 0.015 0 0 -0.346714 0.0353429 
447 1 -0.122284 0.393789 1.77291 0 -0.5 -3.56004 0.015 0 0 -0.346714 0.0353429 
309 1 -0.144284 0.128031 1.78901 0 -0.5 -3.5154 0.025 0 0 -1.60516 0.163625 
430 1 -0.123083 0.175393 1.80051 0 -0.5 -3.48312 0.015 0 0 -0.346714 0.0353429 
403 1 -0.0833248 0.181397 1.8039 0 -0.5 -3.47361 0.015 0 0 -0.346714 0.0353429 
387 1 -0.0901615 0.290452 1.79273 0 -0.5 -3.505 0.015 0 0 -0.346714 0.0353429 
372 1 -0.0702168 0.312237 1.77792 0 -0.5 -3.5462 0.015 0 0 -0.346714 0.0353429 
338 1 -0.0583644 0.381556 1.79111 0 -0.5 -3.50951 0.025 0 0 -1.60516 0.163625 
379 1 -0.0327871 0.130329 1.82021 0 -0.5 -3.42721 0.015 0 0 -0.346714 0.0353429 
393 1 -0.015571 0.352279 1.81613 0 -0.5 -3.43888 0.015 0 0 -0.346714 0.0353429 
316 1 -0.0983119 0.114111 1.85795 0 -0.5 -3.31743 0.025 0 0 -1.60516 0.163625 
357 1 -0.0584785 0.179214 1.85102 0 -0.5 -3.33784 0.015 0 0 -0.346714 0.0353429 
301 1 -0.0868179 0.352737 1.85952 0.012148 -0.512208 -3.31281 0.025 0 0 -1.60516 0.163625 
428 1 -0.0387226 0.364002 1.8649 0 -0.5 -3.29683 0.015 0 0 -0.346714 0.0353429 
329 1 -0.125305 0.39154 1.85534 -0.0138001 -0.485947 -3.32522 0.025 0 0 -1.60516 0.163625 
364 1 -0.0453235 0.144807 1.87143 0 -0.5 -3.27731 0.015 0 0 -0.346714 0.0353429 
321 1 -0.126579 0.185251 1.87254 0 -0.5 -3.27398 0.025 0 0 -1.60516 0.163625 
410 1 -0.145474 0.234536 1.87758 0 -0.5 -3.25887 0.015 0 0 -0.346714 0.0353429 
333 1 -0.0978849 0.247337 1.87362 0 -0.5 -3.27074 0.025 0 0 -1.60516 0.163625 
380 1 -0.127355 0.289976 1.86604 0 -0.5 -3.2934 0.015 0 0 -0.346714 0.0353429 
337 1 -0.142368 0.330838 1.88977 0 -0.5 -3.22198 0.025 0 0 -1.60516 0.163625 
450 1 -0.0322061 0.408898 1.86627 0 -0.5 -3.29271 0.015 0 0 -0.346714 0.0353429 
425 1 -0.074083 0.122787 1.94858 0 -0.5 -3.03765 0.015 0 0 -0.346714 0.0353429 
332 1 -0.0814262 0.176266 1.93285 0 -0.5 -3.08798 0.025 0 0 -1.60516 0.163625 
400 1 -0.135353 0.219905 1.9369 0 -0.5 -3.07513 0.015 0 0 -0.346714 0.0353429 
317 1 -0.129905 0.262055 1.95644 0 -0.5 -3.01215 0.025 0 0 -1.60516 0.163625 
366 1 -0.144217 0.339022 1.95381 0 -0.5 -3.02068 0.015 0 0 -0.346714 0.0353429 
339 1 -0.0802774 0.38466 1.94799 0 -0.5 -3.03952 0.025 0 0 -1.60516 0.163625 
305 1 -0.0452536 0.421472 1.94857 0 -0.5 -3.03765 0.025 0 0 -1.60516 0.163625 
544 1 -0.0185764 0.460506 1.9515 -0.39021 -0.130746 -3.12109 0.015 0 0 -0.346714 0.0353429 
404 1 -0.119976 0.143844 1.97247 0 -0.5 -2.95947 0.015 0 0 -0.346714 0.0353429 
311 1 -0.0354402 0.138368 1.96022 0 -0.5 -2.99979 0.025 0 0 -1.60516 0.163625 
345 1 -0.128178 0.186674 1.96873 0 -0.5 -2.97183 0.025 0 0 -1.60516 0.163625 
435 1 -0.0960728 0.223976 1.97295 0 -0.5 -2.9579 0.015 0 0 -0.346714 0.0353429 
405 1 -0.038992 0.37339 1.96003 0 -0.5 -3.00037 0.015 0 0 -0.346714 0.0353429 
714 1 -0.0240605 0.188326 2.01159 0 -0.5 -2.82684 0.015 0 0 -0.346714 0.0353429 
675 1 -0.131557 0.379242 2.00931 -0.0349785 -0.349711 -2.95472 0.015 0 0 -0.346714 0.0353429 
690 1 -0.0634806 0.386565 2.01564 0 -0.5 -2.81271 0.015 0 0 -0.346714 0.0353429 
634 1 -0.102181 0.408021 2.01703 0 -0.5 -2.8079 0.025 0 0 -1.60516 0.163625 
444 1 -0.0159467 0.419826 1.99035 0 -0.5 -2.89963 0.015 0 0 -0.346714 0.0353429 
676 1 -0.132839 0.215867 2.02207 0 -0.5 -2.79024 0.015 0 0 -0.346714 0.0353429 
652 1 -0.0683105 0.220338 2.03176 0 -0.5 -2.75591 0.015 0 0 -0.346714 0.0353429 
629 1 -0.113195 0.267381 2.03945 0 -0.5 -2.72844 0.025 0 0 -1.60516 0.163625 
669 1 -0.0318411 0.397893 2.03403 0 -0.5 -2.74787 0.015 0 0 -0.346714 0.0353429 
608 1 -0.0938106 0.156793 2.0578 0 -0.5 -2.66164 0.025 0 0 -1.60516 0.163625 
682 1 -0.0469368 0.152781 2.06297 0 -0.5 -2.64251 0.015 0 0 -0.346714 0.0353429 
657 1 -0.0480729 0.190927 2.06869 0 -0.5 -2.62122 0.015 0 0 -0.346714 0.0353429 
735 1 -0.0832421 0.234669 2.07839 0 -0.5 -2.58463 0.015 0 0 -0.346714 0.0353429 
606 1 -0.122793 0.343302 2.0595 0.00210743 -0.508228 -2.64877 0.025 0 0 -1.60516 0.163625 
708 1 -0.0786991 0.381401 2.05899 0 -0.5 -2.65722 0.015 0 0 -0.346714 0.0353429 
660 1 -0.0183143 0.394377 2.07085 0 -0.5 -2.61308 0.015 0 0 -0.346714 0.0353429 
701 1 -0.0870486 0.439674 2.06114 0 -0.5 -2.64927 0.015 0 0 -0.346714 0.0353429 
618 1 -0.13283 0.201164 2.10431 0 -0.5 -2.48427 0.025 0 0 -1.60516 0.163625 
709 1 -0.101732 0.283531 2.09926 0 -0.5 -2.50418 0.015 0 0 -0.346714 0.0353429 
750 1 -0.0862874 0.348179 2.10553 0 -0.5 -2.47946 0.015 0 0 -0.346714 0.0353429 
707 1 -0.0900659 0.183989 2.11373 0 -0.5 -2.4468 0.015 0 0 -0.346714 0.0353429 
640 1 -0.0489559 0.203517 2.12821 0 -0.5 -2.38803 0.025 0 0 -1.60516 0.163625 
680 1 -0.0791761 0.238881 2.12186 0 -0.5 -2.41403 0.015 0 0 -0.346714 0.0353429 
649 1 -0.129761 0.317177 2.11442 0 -0.5 -2.44405 0.025 0 0 -1.60516 0.163625 
616 1 -0.140255 0.409264 2.12864 0 -0.5 -2.38627 0.025 0 0 -1.60516 0.163625 
725 1 -0.0732043 0.411614 2.14 0 -0.5 -2.33908 0.015 0 0 -0.346714 0.0353429 
712 1 -0.0372677 0.45455 2.13478 0 -0.5 -2.36096 0.015 0 0 -0.346714 0.0353429 
677 1 -0.113879 0.174303 2.14551 0 -0.5 -2.31593 0.015 0 0 -0.346714 0.0353429 
736 1 -0.0864872 0.267793 2.17095 0 -0.5 -2.20557 0.015 0 0 -0.346714 0.0353429 
744 1 -0.107021 0.360725 2.1547 0 -0.5 -2.27669 0.015 0 0 -0.346714 0.0353429 
685 1 -0.0969629 0.407703 2.16599 0 -0.5 -2.22744 0.015 0 0 -0.346714 0.0353429 
610 1 -0.108705 0.207549 2.19208 0 -0.5 -2.10943 0.025 0 0 -1.60516 0.163625 
748 1 -0.0192599 0.196831 2.20187 0 -0.5 -2.06342 0.015 0 0 -0.346714 0.0353429 
692 1 -0.0389882 0.22907 2.1848 0 -0.5 -2.14298 0.015 0 0 -0.346714 0.0353429 
625 1 -0.115962 0.281104 2.20372 0.000198667 -0.499746 -2.05477 0.025 0.287877 0.367737 -1.8626 0.163625 
722 1 -0.124711 0.406428 2.18485 0 -0.5 -2.14278 0.015 0 0 -0.346714 0.0353429 
683 1 -0.0829948 0.408592 2.19468 0 -0.5 -2.09736 0.015 0 0 -0.346714 0.0353429 
732 1 -0.0691875 0.445647 2.19792 0 -0.5 -2.08206 0.015 0 0 -0.346714 0.0353429 
620 1 -0.0294016 0.439755 2.19031 0 -0.5 -2.11767 0.025 0 0 -1.60516 0.163625 
674 1 -0.11657 0.463544 2.18197 0 -0.5 -2.15593 0.015 0 0 -0.346714 0.0353429 
699 1 -0.0856858 0.46542 2.18065 0 -0.5 -2.16191 0.015 0 0 -0.346714 0.0353429 
705 1 -0.0946775 0.182879 2.2246 -0 0 -2 0.015 0 0 0 0.0353429 
641 1 -0.143995 0.248499 2.22914 -0 0 -2 0.025 0 0 0 0.163625 
678 1 -0.0973357 0.337233 2.21466 0 -0.5 -2.00162 0.015 0 0 -0.346714 0.0353429 
636 1 -0.149776 0.382476 2.20908 0 -0.5 -2.02879 0.025 0 0 -1.60516 0.163625 
698 1 -0.111785 0.421731 2.23055 -0 0 -2 0.015 0 0 0 0.0353429 
696 1 -0.058387 0.410183 2.22164 -0 0 -2 0.015 0 0 0 0.0353429 
648 1 -0.130879 0.464062 2.22615 -0 0 -2 0.025 0 0 0 0.163625 
644 1 -0.140738 0.186408 2.25058 -0 0 -2 0.025 0 0 0 0.163625 
637 1 -0.0618774 0.209032 2.24615 -0 0 -2 0.025 0 0 0 0.163625 
730 1 -0.0250727 0.190561 2.24176 -0 0 -2 0.015 0 0 0 0.0353429 
729 1 -0.0894542 0.239788 2.24748 -0 0 -2 0.015 0 0 0 0.0353429 
724 1 -0.0903421 0.274729 2.25614 -0 0 -2 0.015 0 0 0 0.0353429 
694 1 -0.138308 0.343846 2.23655 -0 0 -2 0.015 0 0 0 0.0353429 
733 1 -0.0833844 0.376757 2.23708 -0 0 -2 0.015 0 0 0 0.0353429 
628 1 -0.0865924 0.407234 2.26401 -0 0 -2 0.025 0 0 0 0.163625 
639 1 -0.0758688 0.455316 2.25346 -0 0 -2 0.025 0 0 0 0.163625 
679 1 -0.13837 0.180668 2.29296 -0 0 -2 0.015 0 0 0 0.0353429 
684 1 -0.0877228 0.214649 2.27838 -0 0 -2 0.015 0 0 0 0.0353429 
627 1 -0.14504 0.290308 2.28397 -0 0 -2 0.025 0 0 0 0.163625 
745 1 -0.114925 0.311202 2.26556 -0 0 -2 0.015 0 0 0 0.0353429 
603 1 -0.121744 0.345667 2.28885 -0 0 -2 0.025 0 0 0 0.163625 
702 1 -0.149858 0.401742 2.29521 -0 0 -2 0.015 0 0 0 0.0353429 
635 1 -0.142362 0.4734 2.29318 -0 0 -2 0.025 0 0 0 0.163625 
703 1 -0.0877381 0.462891 2.29249 -0 0 -2 0.015 0 0 0 0.0353429 
691 1 -0.0734004 0.189006 2.3011 -0 0 -2 0.015 0 0 0 0.0353429 
740 1 -0.0241674 0.189645 2.31676 -0 0 -2 0.015 0 0 0 0.0353429 
706 1 -0.129002 0.229476 2.29681 -0 0 -2 0.015 0 0 0 0.0353429 
704 1 -0.0317726 0.220718 2.32044 -0 0 -2 0.015 0 0 0 0.0353429 