ITEM: TIMESTEP
25600
ITEM: NUMBER OF ATOMS
300
ITEM: BOX BOUNDS mm mm mm
-1 1
-1 1
-0.05 2.85
ITEM: ATOMS id type x y z vx vy vz radius fx fy fz mass 
68 1 -0.0997213 0.117271 1.42168 0 -0.5 -4.42322 0.015 0 0 -0.346714 0.0353429 
137 1 -0.0875598 0.162421 1.43253 -0.00924354 -0.479856 -4.40036 0.015 0 0 -0.346714 0.0353429 
119 1 -0.0370509 0.0571886 1.4679 0 -0.5 -4.31953 0.015 0 0 -0.346714 0.0353429 
45 1 -0.0943793 0.0682376 1.44446 0 -0.5 -4.3724 0.025 0 0 -1.60516 0.163625 
122 1 -0.070936 0.126667 1.44471 0.00811842 -0.517403 -4.37078 0.015 0 0 -0.346714 0.0353429 
43 1 -0.116198 0.219785 1.46127 0 -0.5 -4.33453 0.025 0 0 -1.60516 0.163625 
33 1 -0.129286 0.308605 1.4396 0 -0.5 -4.38329 0.025 0 0 -1.60516 0.163625 
111 1 -0.0487783 0.3521 1.46174 0 -0.5 -4.33346 0.015 0 0 -0.346714 0.0353429 
75 1 -0.0493142 0.107672 1.48161 0 -0.5 -4.28823 0.015 0 0 -0.346714 0.0353429 
89 1 -0.129145 0.136308 1.48667 0 -0.5 -4.27666 0.015 0 0 -0.346714 0.0353429 
59 1 -0.0865612 0.264868 1.49784 0 -0.5 -4.25095 0.015 0 0 -0.346714 0.0353429 
78 1 -0.0422369 0.315955 1.47405 0 -0.5 -4.3055 0.015 0 0 -0.346714 0.0353429 
116 1 -0.0165613 0.193598 1.50266 0.36535 -0.287166 -4.36144 0.015 0 0 -0.346714 0.0353429 
92 1 -0.131017 0.359327 1.50963 0 -0.5 -4.22368 0.015 0 0 -0.346714 0.0353429 
26 1 -0.084157 0.167689 1.54953 0.14857 -0.341553 -4.19273 0.025 0 0 -1.60516 0.163625 
98 1 -0.147127 0.208442 1.55289 0 -0.5 -4.12195 0.015 0 0 -0.346714 0.0353429 
151 1 -0.0686397 0.290527 1.55245 0 -0.5 -4.12303 0.015 0 0 -0.346714 0.0353429 
8 1 -0.104188 0.075463 1.56586 0 -0.5 -4.09095 0.025 0 0 -1.60516 0.163625 
3 1 -0.141317 0.273388 1.5718 0 -0.5 -4.07673 0.025 0 0 -1.60516 0.163625 
72 1 -0.105673 0.310796 1.58199 0 -0.5 -4.0521 0.015 0 0 -0.346714 0.0353429 
117 1 -0.0596227 0.0870208 1.61175 0 -0.5 -3.97941 0.015 0 0 -0.346714 0.0353429 
100 1 -0.0681017 0.143921 1.59665 0 -0.5 -4.01649 0.015 0 0 -0.346714 0.0353429 
140 1 -0.125739 0.185556 1.59299 0 -0.5 -4.02542 0.015 0 0 -0.346714 0.0353429 
118 1 -0.0372647 0.345681 1.6005 0 -0.5 -4.00708 0.015 0 0 -0.346714 0.0353429 
40 1 -0.104474 0.362198 1.59382 0 -0.5 -4.02336 0.025 0 0 -1.60516 0.163625 
51 1 -0.153874 0.104872 1.62894 -0.0265052 -0.519812 -3.92751 0.025 0 0 -1.60516 0.163625 
148 1 -0.138984 0.204135 1.64356 -0.171679 -0.397353 -4.02875 0.015 0 0 -0.346714 0.0353429 
60 1 -0.0770515 0.0959276 1.66845 0 -0.5 -3.83707 0.015 0 0 -0.346714 0.0353429 
11 1 -0.103473 0.248116 1.66822 0.022917 -0.457889 -3.86623 0.025 0 0 -1.60516 0.163625 
50 1 -0.130982 0.320355 1.66949 0 -0.5 -3.83442 0.025 0 0 -1.60516 0.163625 
90 1 -0.146535 0.363667 1.6542 0 -0.5 -3.87337 0.015 0 0 -0.346714 0.0353429 
44 1 -0.125916 0.0875965 1.7104 0 -0.5 -3.72828 0.025 0 0 -1.60516 0.163625 
105 1 -0.136766 0.224554 1.69577 -0.321192 -0.368687 -3.74994 0.015 0 0 -0.346714 0.0353429 
74 1 -0.0790012 0.307893 1.69282 0 -0.5 -3.77429 0.015 0 0 -0.346714 0.0353429 
76 1 -0.0202065 0.33607 1.70338 0 -0.5 -3.74672 0.015 0 0 -0.346714 0.0353429 
36 1 -0.103411 0.134312 1.72457 0 -0.5 -3.6908 0.025 0 0 -1.60516 0.163625 
54 1 -0.141279 0.17444 1.73571 -0.0956439 -0.529683 -3.6395 0.015 0 0 -0.346714 0.0353429 
29 1 -0.0788351 0.350182 1.72062 0 -0.5 -3.7013 0.025 0 0 -1.60516 0.163625 
73 1 -0.0639552 0.113767 1.76749 0 -0.5 -3.57495 0.015 0 0 -0.346714 0.0353429 
114 1 -0.0719562 0.164397 1.74785 -0.00040144 -0.499666 -3.62859 0.015 0 0 -0.346714 0.0353429 
2 1 -0.110349 0.261071 1.7712 0 -0.5 -3.56474 0.025 0 0 -1.60516 0.163625 
113 1 -0.118506 0.385198 1.76336 0 -0.5 -3.58623 0.015 0 0 -0.346714 0.0353429 
146 1 -0.109965 0.100916 1.78195 0 -0.5 -3.53502 0.015 0 0 -0.346714 0.0353429 
57 1 -0.120673 0.217061 1.79936 0 -0.5 -3.48636 0.015 0 0 -0.346714 0.0353429 
88 1 -0.0666498 0.327919 1.79235 0 -0.5 -3.50608 0.015 0 0 -0.346714 0.0353429 
12 1 -0.0363281 0.370336 1.78097 0 -0.5 -3.53777 0.025 0 0 -1.60516 0.163625 
99 1 -0.146283 0.165517 1.80754 0 -0.5 -3.46331 0.015 0 0 -0.346714 0.0353429 
19 1 -0.0715757 0.175252 1.83234 0 -0.5 -3.39228 0.025 0 0 -1.60516 0.163625 
66 1 -0.0281121 0.152823 1.83489 0 -0.5 -3.38493 0.015 0 0 -0.346714 0.0353429 
83 1 -0.108229 0.195146 1.82994 0 -0.5 -3.39925 0.015 0 0 -0.346714 0.0353429 
10 1 -0.0888649 0.297861 1.83483 0.0800593 -0.36273 -3.51019 0.025 0 0 -1.60516 0.163625 
34 1 -0.138562 0.334511 1.8263 0 -0.5 -3.40975 0.025 0 0 -1.60516 0.163625 
67 1 -0.0183057 0.108389 1.85148 0 -0.5 -3.33647 0.015 0 0 -0.346714 0.0353429 
24 1 -0.138394 0.135452 1.85957 0 -0.5 -3.31263 0.025 0 0 -1.60516 0.163625 
133 1 -0.127566 0.251944 1.86526 0 -0.5 -3.29575 0.015 0 0 -0.346714 0.0353429 
81 1 -0.051385 0.335999 1.83732 0 -0.5 -3.37786 0.015 0 0 -0.346714 0.0353429 
71 1 -0.145263 0.378198 1.8402 0 -0.5 -3.36953 0.015 0 0 -0.346714 0.0353429 
70 1 -0.107191 0.161924 1.8913 0 -0.5 -3.21727 0.015 0 0 -0.346714 0.0353429 
103 1 -0.135939 0.179722 1.88346 0 -0.5 -3.24111 0.015 0 0 -0.346714 0.0353429 
95 1 -0.10482 0.339312 1.86752 0 -0.5 -3.28898 0.015 0 0 -0.346714 0.0353429 
39 1 -0.0696793 0.38901 1.8676 0 -0.5 -3.28879 0.025 0 0 -1.60516 0.163625 
143 1 -0.11631 0.397682 1.88905 0 -0.5 -3.22414 0.015 0 0 -0.346714 0.0353429 
28 1 -0.0685748 0.13807 1.90731 0 -0.5 -3.16813 0.025 0 0 -1.60516 0.163625 
97 1 -0.0338223 0.165144 1.90159 0 -0.5 -3.18578 0.015 0 0 -0.346714 0.0353429 
115 1 -0.076478 0.200431 1.90185 0 -0.5 -3.185 0.015 0 0 -0.346714 0.0353429 
126 1 -0.114593 0.257992 1.91529 -0.0288748 -0.539424 -3.10363 0.015 0 0 -0.346714 0.0353429 
85 1 -0.13789 0.322015 1.90337 0 -0.5 -3.18029 0.015 0 0 -0.346714 0.0353429 
134 1 -0.137197 0.362367 1.91352 0 -0.5 -3.1488 0.015 0 0 -0.346714 0.0353429 
77 1 -0.0297287 0.390749 1.91795 0 -0.5 -3.13497 0.015 0 0 -0.346714 0.0353429 
120 1 -0.148569 0.411261 1.91921 0 -0.5 -3.13104 0.015 0 0 -0.346714 0.0353429 
96 1 -0.131998 0.165081 1.93008 0 -0.5 -3.09681 0.015 0 0 -0.346714 0.0353429 
38 1 -0.121616 0.206188 1.94266 0 -0.5 -3.05668 0.025 0 0 -1.60516 0.163625 
31 1 -0.140814 0.142877 1.9877 0 -0.5 -2.90855 0.025 0 0 -1.60516 0.163625 
150 1 -0.100106 0.177207 1.97916 0 -0.5 -2.9372 0.015 0 0 -0.346714 0.0353429 
130 1 -0.0642546 0.200441 1.96582 0 -0.5 -2.98144 0.015 0 0 -0.346714 0.0353429 
23 1 -0.134189 0.342519 1.96528 0 -0.5 -2.98321 0.025 0 0 -1.60516 0.163625 
18 1 -0.106015 0.407686 1.97989 0 -0.5 -2.93475 0.025 0 0 -1.60516 0.163625 
4 1 -0.0330873 0.420857 1.97943 0 -0.5 -2.93632 0.025 0 0 -1.60516 0.163625 
110 1 -0.0868918 0.132417 2.00295 0 -0.5 -2.85666 0.015 0 0 -0.346714 0.0353429 
93 1 -0.0244706 0.144158 2.01059 0 -0.5 -2.83027 0.015 0 0 -0.346714 0.0353429 
17 1 -0.134634 0.258027 2.01443 0 -0.5 -2.81693 0.025 0 0 -1.60516 0.163625 
136 1 -0.0832352 0.351008 2.01258 0 -0.5 -2.8234 0.015 0 0 -0.346714 0.0353429 
30 1 -0.0481876 0.378857 2.017 0 -0.5 -2.808 0.025 0 0 -1.60516 0.163625 
109 1 -0.0676248 0.42608 2.0164 0 -0.5 -2.81006 0.015 0 0 -0.346714 0.0353429 
108 1 -0.089121 0.164824 2.03983 0 -0.5 -2.72707 0.015 0 0 -0.346714 0.0353429 
106 1 -0.1091 0.42847 2.0298 -0.0998962 -0.230395 -3.01729 0.015 0 0 -0.346714 0.0353429 
102 1 -0.11709 0.164899 2.0718 0 -0.5 -2.60954 0.015 0 0 -0.346714 0.0353429 
14 1 -0.0571303 0.156975 2.07743 0 -0.5 -2.58826 0.025 0 0 -1.60516 0.163625 
69 1 -0.020474 0.185083 2.05186 0 -0.5 -2.68341 0.015 0 0 -0.346714 0.0353429 
139 1 -0.104092 0.222572 2.07171 0 -0.5 -2.60984 0.015 0 0 -0.346714 0.0353429 
144 1 -0.0691235 0.225474 2.07123 0 -0.5 -2.6117 0.015 0 0 -0.346714 0.0353429 
22 1 -0.102489 0.290306 2.06905 0 -0.5 -2.61984 0.025 0 0 -1.60516 0.163625 
35 1 -0.146938 0.358792 2.05542 0 -0.5 -2.67037 0.025 0 0 -1.60516 0.163625 
55 1 -0.0959975 0.396394 2.07988 -7.52477e-06 -0.49998 -2.57897 0.015 0 0 -0.346714 0.0353429 
141 1 -0.136875 0.238264 2.08508 0 -0.5 -2.55912 0.015 0 0 -0.346714 0.0353429 
87 1 -0.113676 0.359588 2.10008 0 -0.5 -2.50095 0.015 0 0 -0.346714 0.0353429 
1 1 -0.143273 0.451471 2.08129 -0.021394 -0.0706631 -2.88225 0.025 0 0 -1.60516 0.163625 
21 1 -0.0470047 0.4415 2.09255 0 -0.5 -2.53028 0.025 0 0 -1.60516 0.163625 
107 1 -0.141609 0.153948 2.11337 0 -0.5 -2.44827 0.015 0 0 -0.346714 0.0353429 
142 1 -0.0724928 0.178748 2.13692 0 -0.5 -2.35203 0.015 0 0 -0.346714 0.0353429 
112 1 -0.073338 0.237279 2.12632 0 -0.5 -2.39578 0.015 0 0 -0.346714 0.0353429 
149 1 -0.104529 0.262488 2.12941 0.399104 0.0480689 -2.43738 0.015 0 0 -0.346714 0.0353429 
94 1 -0.129245 0.278541 2.12037 -0.356499 -0.190573 -2.56651 0.015 0 0 -0.346714 0.0353429 
84 1 -0.116406 0.317786 2.12463 0 -0.5 -2.40275 0.015 0 0 -0.346714 0.0353429 
47 1 -0.140465 0.40145 2.13696 0 -0.5 -2.35184 0.025 0 0 -1.60516 0.163625 
145 1 -0.0934491 0.394113 2.13796 0 -0.5 -2.34772 0.015 0 0 -0.346714 0.0353429 
147 1 -0.100309 0.429431 2.12125 0 -0.5 -2.41648 0.015 0 0 -0.346714 0.0353429 
32 1 -0.151171 0.17151 2.15951 -0.0613285 -0.540948 -2.24827 0.025 0 0 -1.60516 0.163625 
6 1 -0.106817 0.201896 2.14998 0.101461 -0.428163 -2.31121 0.025 0 0 -1.60516 0.163625 
138 1 -0.0317395 0.181316 2.16836 0 -0.5 -2.21695 0.015 0 0 -0.346714 0.0353429 
135 1 -0.140472 0.246893 2.15942 0 -0.5 -2.25619 0.015 0 0 -0.346714 0.0353429 
15 1 -0.0916636 0.293929 2.15251 0 -0.5 -2.28601 0.025 0 0 -1.60516 0.163625 
128 1 -0.145291 0.331677 2.16915 0 -0.5 -2.21351 0.015 0 0 -0.346714 0.0353429 
80 1 -0.102893 0.364893 2.1456 0 -0.5 -2.31554 0.015 0 0 -0.346714 0.0353429 
62 1 -0.0849655 0.454406 2.1593 0 -0.5 -2.25678 0.015 0 0 -0.346714 0.0353429 
129 1 -0.0553418 0.205199 2.19527 0 -0.5 -2.09452 0.015 0 0 -0.346714 0.0353429 
13 1 -0.146779 0.287821 2.20185 0 -0.5 -2.06352 0.025 0 0 -1.60516 0.163625 
101 1 -0.102489 0.297824 2.20002 0 -0.5 -2.07215 0.015 0 0 -0.346714 0.0353429 
37 1 -0.0716655 0.400665 2.19977 0 -0.5 -2.07333 0.025 0 0 -1.60516 0.163625 
121 1 -0.0679495 0.436078 2.17847 0 -0.5 -2.17182 0.015 0 0 -0.346714 0.0353429 
46 1 -0.032303 0.462569 2.20212 0 -0.5 -2.06224 0.025 0 0 -1.60516 0.163625 
61 1 -0.0231802 0.174935 2.20689 0 -0.5 -2.03939 0.015 0 0 -0.346714 0.0353429 
52 1 -0.100497 0.19049 2.21054 0 -0.5 -2.02173 0.015 0 0 -0.346714 0.0353429 
79 1 -0.0179342 0.208984 2.20693 0 -0.5 -2.03919 0.015 0 0 -0.346714 0.0353429 
5 1 -0.137704 0.218352 2.21525 -0 0 -2 0.025 0 0 0 0.163625 
7 1 -0.0712578 0.257024 2.21671 -0 0 -2 0.025 0 0 0 0.163625 
20 1 -0.124339 0.345888 2.2138 0 -0.5 -2.00594 0.025 0 0 -1.60516 0.163625 
86 1 -0.142939 0.382764 2.23219 -0 0 -2 0.015 0 0 0 0.0353429 
91 1 -0.124131 0.394132 2.20713 0 -0.5 -2.03821 0.015 0 0 -0.346714 0.0353429 
9 1 -0.0320364 0.416484 2.23371 -0 0 -2 0.025 0 0 0 0.163625 
65 1 -0.147981 0.187337 2.24604 -0 0 -2 0.015 0 0 0 0.0353429 
58 1 -0.0969698 0.285666 2.23991 -0 0 -2 0.015 0 0 0 0.0353429 
104 1 -0.138444 0.347252 2.26286 -0 0 -2 0.015 0 0 0 0.0353429 
124 1 -0.136447 0.411167 2.23985 -0 0 -2 0.015 0 0 0 0.0353429 
131 1 -0.025873 0.449155 2.25854 -0 0 -2 0.015 0 0 0 0.0353429 
41 1 -0.107908 0.465288 2.24489 -0 0 -2 0.025 0 0 0 0.163625 
49 1 -0.0613084 0.18937 2.28036 -0 0 -2 0.025 0 0 0 0.163625 
132 1 -0.0234712 0.214078 2.27138 -0 0 -2 0.015 0 0 0 0.0353429 
48 1 -0.144727 0.271852 2.27101 -0 0 -2 0.025 0 0 0 0.163625 
53 1 -0.106432 0.3161 2.27198 -0 0 -2 0.015 0 0 0 0.0353429 
16 1 -0.129915 0.412384 2.2818 -0 0 -2 0.025 0 0 0 0.163625 
82 1 -0.0851821 0.402207 2.28469 -0 0 -2 0.015 0 0 0 0.0353429 
27 1 -0.0637137 0.439115 2.28209 -0 0 -2 0.025 0 0 0 0.163625 
63 1 -0.147823 0.467223 2.28896 -0 0 -2 0.015 0 0 0 0.0353429 
25 1 -0.104447 0.217985 2.30221 -0 0 -2 0.025 0 0 0 0.163625 
127 1 -0.0304133 0.231126 2.29699 -0 0 -2 0.015 0 0 0 0.0353429 
42 1 -0.132916 0.309326 2.30888 -0 0 -2 0.025 0 0 0 0.163625 
123 1 -0.11925 0.365597 2.31058 -0 0 -2 0.015 0 0 0 0.0353429 
125 1 -0.0960051 0.419402 2.31792 -0 0 -2 0.015 0 0 0 0.0353429 
64 1 -0.145219 0.427667 2.31704 -0 0 -2 0.015 0 0 0 0.0353429 
56 1 -0.11556 0.462639 2.29692 -0 0 -2 0.015 0 0 0 0.0353429 
289 1 0.096855 0.259626 1.33538 0.0203384 -0.134604 -4.80151 0.015 0 0 -0.346714 0.0353429 
284 1 0.0732135 0.0746321 1.41896 -0.0310215 -0.613333 -4.49623 0.015 0 0 -0.346714 0.0353429 
203 1 0.0667127 0.0552328 1.44241 0 -0.5 -4.37701 0.015 0 0 -0.346714 0.0353429 
206 1 0.0935065 0.101308 1.44569 0.057048 -0.582454 -4.42069 0.015 0 0 -0.346714 0.0353429 
237 1 0.121422 0.117933 1.45885 0.0724848 -0.475593 -4.32569 0.015 0 0 -0.346714 0.0353429 
259 1 0.149131 0.0958265 1.46409 0 -0.5 -4.32816 0.015 0 0 -0.346714 0.0353429 
199 1 0.0901721 0.190004 1.44833 -0.00278668 -0.321029 -4.47317 0.025 0 0 -1.60516 0.163625 
171 1 0.0955264 0.257107 1.46353 0 -0.5 -4.32943 0.025 0 0 -1.60516 0.163625 
214 1 0.144386 0.241733 1.45053 0 -0.5 -4.35877 0.015 0 0 -0.346714 0.0353429 
213 1 0.0350777 0.29457 1.44253 0 -0.5 -4.37672 0.015 0 0 -0.346714 0.0353429 
272 1 0.0168276 0.329548 1.43852 0 -0.5 -4.38574 0.015 0 0 -0.346714 0.0353429 
241 1 0.0849537 0.325018 1.45441 0 -0.5 -4.35003 0.015 0 0 -0.346714 0.0353429 
226 1 0.110692 0.303304 1.45933 0 -0.5 -4.33895 0.015 0 0 -0.346714 0.0353429 
220 1 0.0247467 0.077344 1.49719 -0.0669262 -0.554313 -4.24299 0.015 0 0 -0.346714 0.0353429 
263 1 0.025742 0.116494 1.47418 0 -0.5 -4.3052 0.015 0 0 -0.346714 0.0353429 
177 1 0.147221 0.217111 1.49788 0.112606 -0.398162 -4.258 0.025 0 0 -1.60516 0.163625 
290 1 0.145531 0.265133 1.52686 0.0439512 -0.299137 -4.13164 0.015 0 0 -0.346714 0.0353429 
184 1 0.11251 0.357841 1.52698 0 -0.5 -4.18317 0.025 0 0 -1.60516 0.163625 
249 1 0.0491797 0.295421 1.54599 0 -0.5 -4.13833 0.015 0 0 -0.346714 0.0353429 
270 1 0.0946744 0.287669 1.55685 0 -0.5 -4.11253 0.015 0 0 -0.346714 0.0353429 
166 1 0.0609489 0.359253 1.53205 0 -0.5 -4.1713 0.025 0 0 -1.60516 0.163625 
216 1 0.0850996 0.102913 1.57664 0.0481324 -0.610657 -4.03537 0.015 0 0 -0.346714 0.0353429 
222 1 0.123753 0.0976614 1.57313 0 -0.5 -4.07349 0.015 0 0 -0.346714 0.0353429 
294 1 0.128315 0.320152 1.56971 0 -0.5 -4.08173 0.015 0 0 -0.346714 0.0353429 
180 1 0.0410174 0.113764 1.60365 -0.021889 -0.504465 -3.99078 0.025 0 0 -1.60516 0.163625 
253 1 0.123075 0.205069 1.60661 0 -0.5 -3.99207 0.015 0 0 -0.346714 0.0353429 
170 1 0.164403 0.271076 1.5931 0.161731 -0.381986 -4.04507 0.025 0 0 -1.60516 0.163625 
231 1 0.0350342 0.31762 1.60202 0 -0.5 -4.00335 0.015 0 0 -0.346714 0.0353429 
169 1 0.0892107 0.326668 1.62002 0 -0.5 -3.95901 0.025 0 0 -1.60516 0.163625 
209 1 0.0969746 0.0932476 1.64308 0 -0.5 -3.90142 0.015 0 0 -0.346714 0.0353429 
282 1 0.0481267 0.191567 1.62879 -0.2609 -0.673185 -3.90733 0.015 0 0 -0.346714 0.0353429 
296 1 0.146983 0.209001 1.67168 0 -0.5 -3.82883 0.015 0 0 -0.346714 0.0353429 
278 1 0.113612 0.227965 1.67023 0 -0.5 -3.83256 0.015 0 0 -0.346714 0.0353429 
257 1 0.139837 0.340641 1.67062 0 -0.5 -3.83158 0.015 0 0 -0.346714 0.0353429 
235 1 0.134937 0.0963847 1.71182 0 -0.5 -3.72455 0.015 0 0 -0.346714 0.0353429 
168 1 0.0261487 0.130104 1.70234 0 -0.5 -3.74947 0.025 0 0 -1.60516 0.163625 
269 1 0.141487 0.125504 1.70008 0 -0.5 -3.75535 0.015 0 0 -0.346714 0.0353429 
217 1 0.133752 0.175691 1.71064 0 -0.5 -3.72769 0.015 0 0 -0.346714 0.0353429 
182 1 0.114565 0.285779 1.70765 0 -0.5 -3.73554 0.025 0 0 -1.60516 0.163625 
162 1 0.0478022 0.330457 1.69606 0 -0.5 -3.76585 0.025 0 0 -1.60516 0.163625 
176 1 0.0399362 0.382472 1.7107 0 -0.5 -3.72749 0.025 0 0 -1.60516 0.163625 
286 1 0.147755 0.37487 1.70981 0 -0.5 -3.72985 0.015 0 0 -0.346714 0.0353429 
153 1 0.0895866 0.0907598 1.73667 0 -0.5 -3.65853 0.025 0 0 -1.60516 0.163625 
185 1 0.0936576 0.174666 1.71723 0 -0.5 -3.71032 0.025 0 0 -1.60516 0.163625 
211 1 0.0694768 0.148972 1.75199 0 -0.5 -3.61723 0.015 0 0 -0.346714 0.0353429 
251 1 0.126174 0.243559 1.74673 0 -0.5 -3.63145 0.015 0 0 -0.346714 0.0353429 
291 1 0.140432 0.319523 1.76354 0 -0.5 -3.58574 0.015 0 0 -0.346714 0.0353429 
159 1 0.087245 0.378208 1.76459 0 -0.5 -3.58289 0.025 0 0 -1.60516 0.163625 
204 1 0.134881 0.137248 1.78244 0 -0.5 -3.53365 0.015 0 0 -0.346714 0.0353429 
161 1 0.135356 0.19485 1.78164 0 -0.5 -3.5359 0.025 0 0 -1.60516 0.163625 
230 1 0.118982 0.235372 1.79529 0 -0.5 -3.49784 0.015 0 0 -0.346714 0.0353429 
228 1 0.0279693 0.344593 1.78785 0 -0.5 -3.51864 0.015 0 0 -0.346714 0.0353429 
300 1 0.149285 0.37224 1.77459 0 -0.5 -3.55542 0.015 0 0 -0.346714 0.0353429 
175 1 0.0941494 0.130059 1.81037 0 -0.5 -3.45526 0.025 0 0 -1.60516 0.163625 
192 1 0.134392 0.293049 1.82896 0 -0.5 -3.40209 0.025 0 0 -1.60516 0.163625 
285 1 0.0870748 0.330259 1.83024 0 -0.5 -3.39837 0.015 0 0 -0.346714 0.0353429 
256 1 0.0868225 0.362057 1.82602 0 -0.5 -3.41053 0.015 0 0 -0.346714 0.0353429 
250 1 0.138716 0.376193 1.82397 0 -0.5 -3.41642 0.015 0 0 -0.346714 0.0353429 
246 1 0.0494565 0.39701 1.83082 0 -0.5 -3.3967 0.015 0 0 -0.346714 0.0353429 
240 1 0.0956629 0.39388 1.83265 0 -0.5 -3.3914 0.015 0 0 -0.346714 0.0353429 
202 1 0.126943 0.128119 1.86498 0 -0.5 -3.29654 0.015 0 0 -0.346714 0.0353429 
299 1 0.0153001 0.153541 1.84251 0 -0.5 -3.36276 0.015 0 0 -0.346714 0.0353429 
293 1 0.0548164 0.169145 1.83638 0 -0.5 -3.38061 0.015 0 0 -0.346714 0.0353429 
200 1 0.112803 0.186149 1.85517 0 -0.5 -3.32567 0.025 0 0 -1.60516 0.163625 
255 1 0.0340792 0.344865 1.85996 0 -0.5 -3.31145 0.015 0 0 -0.346714 0.0353429 
252 1 0.131256 0.353424 1.85997 0 -0.5 -3.31145 0.015 0 0 -0.346714 0.0353429 
275 1 0.0211058 0.376962 1.84116 0 -0.5 -3.36668 0.015 0 0 -0.346714 0.0353429 
189 1 0.0509787 0.127512 1.89183 0 -0.5 -3.2157 0.025 0 0 -1.60516 0.163625 
245 1 0.0868358 0.153715 1.87333 0 -0.5 -3.27162 0.015 0 0 -0.346714 0.0353429 
247 1 0.0532922 0.181565 1.88679 0 -0.5 -3.23101 0.015 0 0 -0.346714 0.0353429 
287 1 0.130384 0.11835 1.91406 0 -0.5 -3.14713 0.015 0 0 -0.346714 0.0353429 
288 1 0.0326968 0.163446 1.92196 0 -0.5 -3.12241 0.015 0 0 -0.346714 0.0353429 
154 1 0.116388 0.273122 1.9012 0 -0.5 -3.18696 0.025 0 0 -1.60516 0.163625 
295 1 0.103955 0.332828 1.92435 0 -0.5 -3.11486 0.015 0 0 -0.346714 0.0353429 
156 1 0.0411221 0.381187 1.92627 0 -0.5 -3.10887 0.025 0 0 -1.60516 0.163625 
190 1 0.11779 0.386732 1.90853 0 -0.5 -3.1643 0.025 0 0 -1.60516 0.163625 
210 1 0.0872868 0.125386 1.94589 0 -0.5 -3.04629 0.015 0 0 -0.346714 0.0353429 
181 1 0.070397 0.164344 1.95173 0 -0.5 -3.02745 0.025 0 0 -1.60516 0.163625 
165 1 0.148355 0.216191 1.94312 0 -0.5 -3.05521 0.025 0 0 -1.60516 0.163625 
233 1 0.0406697 0.143292 1.98347 0 -0.5 -2.92278 0.015 0 0 -0.346714 0.0353429 
260 1 0.0198171 0.17312 1.97347 0 -0.5 -2.95613 0.015 0 0 -0.346714 0.0353429 
152 1 0.089118 0.231144 1.9682 0 -0.5 -2.97359 0.025 0 0 -1.60516 0.163625 
279 1 0.11959 0.291322 1.97508 0 -0.5 -2.95083 0.015 0 0 -0.346714 0.0353429 
262 1 0.0888361 0.325008 1.97974 0 -0.5 -2.93524 0.015 0 0 -0.346714 0.0353429 
234 1 0.0945525 0.374871 1.9759 0 -0.5 -2.94809 0.015 0 0 -0.346714 0.0353429 
208 1 0.0680799 0.411251 1.98078 0 -0.5 -2.9318 0.015 0 0 -0.346714 0.0353429 
207 1 0.128901 0.342384 1.99333 0 -0.5 -2.88952 0.015 0 0 -0.346714 0.0353429 
194 1 0.131621 0.402036 1.99116 0 -0.5 -2.89688 0.025 0 0 -1.60516 0.163625 
223 1 0.0343911 0.424571 2.00466 0 -0.5 -2.85077 0.015 0 0 -0.346714 0.0353429 
178 1 0.0370442 0.141146 2.04892 0 -0.5 -2.6942 0.025 0 0 -1.60516 0.163625 
212 1 0.0737637 0.156983 2.02513 0 -0.5 -2.77945 0.015 0 0 -0.346714 0.0353429 
236 1 0.111584 0.170462 2.02515 0 -0.5 -2.77936 0.015 0 0 -0.346714 0.0353429 
224 1 0.132465 0.199362 2.04901 0 -0.5 -2.69381 0.015 0 0 -0.346714 0.0353429 
242 1 0.131055 0.248908 2.03928 0 -0.5 -2.72903 0.015 0 0 -0.346714 0.0353429 
191 1 0.0609008 0.371599 2.02782 0 -0.5 -2.76994 0.025 0 0 -1.60516 0.163625 
258 1 0.135516 0.152979 2.07537 0 -0.5 -2.5961 0.015 0 0 -0.346714 0.0353429 
221 1 0.0987988 0.236271 2.05529 0 -0.5 -2.67086 0.015 0 0 -0.346714 0.0353429 
179 1 0.136485 0.302915 2.06997 0 -0.5 -2.61641 0.025 0 0 -1.60516 0.163625 
248 1 0.0851139 0.341859 2.07936 0 -0.5 -2.5809 0.015 0 0 -0.346714 0.0353429 
264 1 0.0357265 0.435028 2.08079 0 -0.5 -2.5755 0.015 0 0 -0.346714 0.0353429 
205 1 0.0941484 0.152831 2.10874 0 -0.5 -2.46671 0.015 0 0 -0.346714 0.0353429 
187 1 0.0681893 0.20689 2.08573 0 -0.5 -2.55657 0.025 0 0 -1.60516 0.163625 
232 1 0.13999 0.226569 2.10315 0 -0.5 -2.48888 0.015 0 0 -0.346714 0.0353429 
174 1 0.030822 0.398563 2.10374 0 -0.5 -2.48653 0.025 0 0 -1.60516 0.163625 
157 1 0.115469 0.391407 2.08825 0 -0.5 -2.54696 0.025 0 0 -1.60516 0.163625 
277 1 0.0674794 0.428305 2.08946 0 -0.5 -2.54225 0.015 0 0 -0.346714 0.0353429 
201 1 0.0267726 0.16744 2.13243 0 -0.5 -2.37067 0.025 0 0 -1.60516 0.163625 
227 1 0.137271 0.164175 2.11545 0 -0.5 -2.43993 0.015 0 0 -0.346714 0.0353429 
276 1 0.0937292 0.190975 2.12532 0 -0.5 -2.3999 0.015 0 0 -0.346714 0.0353429 
158 1 0.0866624 0.257056 2.1316 0 -0.5 -2.3741 0.025 0 0 -1.60516 0.163625 
254 1 0.137401 0.304739 2.13823 -1.31397e-05 -0.499936 -2.34656 0.015 0 0 -0.346714 0.0353429 
172 1 0.135413 0.350057 2.11716 0.205506 -0.272617 -2.67076 0.025 0 0 -1.60516 0.163625 
229 1 0.102013 0.166371 2.17084 0 -0.5 -2.20606 0.015 0 0 -0.346714 0.0353429 
265 1 0.115746 0.190087 2.15266 0 -0.5 -2.28542 0.015 0 0 -0.346714 0.0353429 
225 1 0.0772421 0.21411 2.15055 0 -0.5 -2.29445 0.015 0 0 -0.346714 0.0353429 
271 1 0.0986811 0.297356 2.15828 -0.00761594 -0.521042 -2.26141 0.015 0 0 -0.346714 0.0353429 
274 1 0.108855 0.326748 2.15754 0.00849878 -0.475917 -2.26417 0.015 0 0 -0.346714 0.0353429 
183 1 0.0737852 0.388476 2.16242 0 -0.5 -2.24314 0.025 0 0 -1.60516 0.163625 
173 1 0.0548933 0.448549 2.1504 0 -0.5 -2.29504 0.025 0 0 -1.60516 0.163625 
283 1 0.102888 0.426132 2.14649 0 -0.5 -2.31171 0.015 0 0 -0.346714 0.0353429 
196 1 0.0520917 0.19926 2.1815 0 -0.5 -2.15809 0.025 0 0 -1.60516 0.163625 
163 1 0.107222 0.230031 2.18756 0 -0.5 -2.13033 0.025 0 0 -1.60516 0.163625 
155 1 0.141768 0.29604 2.18833 0 -0.5 -2.12679 0.025 0 0 -1.60516 0.163625 
268 1 0.140569 0.384425 2.19769 0 -0.5 -2.08314 0.015 0 0 -0.346714 0.0353429 
281 1 0.0312292 0.423757 2.17701 0 -0.5 -2.17839 0.015 0 0 -0.346714 0.0353429 
188 1 0.140755 0.434611 2.18326 0 -0.5 -2.15004 0.025 0 0 -1.60516 0.163625 
280 1 0.036257 0.453649 2.19914 -0.286857 -0.0865209 -2.29166 0.015 -2.38913 3.34337 -2.15516 0.0353429 
267 1 0.101401 0.459938 2.197 0 -0.5 -2.08638 0.015 0 0 -0.346714 0.0353429 
218 1 0.0164873 0.217058 2.22437 -0 0 -2 0.015 0 0 0 0.0353429 
298 1 0.114914 0.351461 2.21645 -0 0 -2 0.015 0 0 0 0.0353429 
197 1 0.0581936 0.42558 2.21616 -0 0 -2 0.025 0 0 0 0.163625 
273 1 0.0779061 0.461373 2.21784 -0 0 -2 0.015 0 0 0 0.0353429 
164 1 0.0527853 0.200711 2.26068 -0 0 -2 0.025 0 0 0 0.163625 
160 1 0.118533 0.219824 2.25438 -0 0 -2 0.025 0 0 0 0.163625 
215 1 0.0767991 0.264474 2.26377 -0 0 -2 0.015 0 0 0 0.0353429 
297 1 0.141884 0.27502 2.26154 -0 0 -2 0.015 0 0 0 0.0353429 
238 1 0.105443 0.363301 2.24441 -0 0 -2 0.015 0 0 0 0.0353429 
195 1 0.147227 0.360394 2.25052 -0 0 -2 0.025 0 0 0 0.163625 
292 1 0.0287531 0.422464 2.26368 -0 0 -2 0.015 0 0 0 0.0353429 
167 1 0.118751 0.462916 2.24872 -0 0 -2 0.025 0 0 0 0.163625 
261 1 0.0852607 0.230216 2.2789 -0 0 -2 0.015 0 0 0 0.0353429 
243 1 0.113126 0.365244 2.2815 -0 0 -2 0.015 0 0 0 0.0353429 
193 1 0.102412 0.413293 2.27652 -0 0 -2 0.025 0 0 0 0.163625 
198 1 0.0617553 0.466461 2.27662 -0 0 -2 0.025 0 0 0 0.163625 
219 1 0.0278687 0.201322 2.30655 -0 0 -2 0.015 0 0 0 0.0353429 
239 1 0.126558 0.237343 2.30331 -0 0 -2 0.015 0 0 0 0.0353429 
186 1 0.10183 0.291927 2.29608 -0 0 -2 0.025 0 0 0 0.163625 
266 1 0.0917737 0.36017 2.31311 -0 0 -2 0.015 0 0 0 0.0353429 
244 1 0.0497502 0.427977 2.29971 -0 0 -2 0.015 0 0 0 0.0353429 
