ITEM: TIMESTEP
13600
ITEM: NUMBER OF ATOMS
300
ITEM: BOX BOUNDS mm mm mm
-1 1
-1 1
-0.05 2.85
ITEM: ATOMS id type x y z vx vy vz radius fx fy fz mass 
68 1 -0.0997213 0.177271 1.88184 0 -0.5 -3.24602 0.015 0 0 -0.346714 0.0353429 
137 1 -0.0864506 0.220004 1.88994 -0.00924354 -0.479856 -3.22316 0.015 0 0 -0.346714 0.0353429 
119 1 -0.0370509 0.117189 1.91561 0 -0.5 -3.14233 0.015 0 0 -0.346714 0.0353429 
45 1 -0.0943793 0.128238 1.89852 0 -0.5 -3.1952 0.025 0 0 -1.60516 0.163625 
75 1 -0.0493142 0.167672 1.92557 0 -0.5 -3.11103 0.015 0 0 -0.346714 0.0353429 
122 1 -0.0719103 0.188756 1.89857 0.00811842 -0.517403 -3.19358 0.015 0 0 -0.346714 0.0353429 
43 1 -0.116198 0.279785 1.91078 0 -0.5 -3.15733 0.025 0 0 -1.60516 0.163625 
33 1 -0.129286 0.368605 1.89496 0 -0.5 -3.20609 0.025 0 0 -1.60516 0.163625 
78 1 -0.0422369 0.375955 1.92008 0 -0.5 -3.1283 0.015 0 0 -0.346714 0.0353429 
111 1 -0.0487783 0.4121 1.91112 0 -0.5 -3.15626 0.015 0 0 -0.346714 0.0353429 
89 1 -0.129145 0.196308 1.92924 0 -0.5 -3.09946 0.015 0 0 -0.346714 0.0353429 
116 1 -0.0604033 0.228058 1.9554 0.36535 -0.287166 -3.18424 0.015 0 0 -0.346714 0.0353429 
59 1 -0.0865612 0.324868 1.93732 0 -0.5 -3.07375 0.015 0 0 -0.346714 0.0353429 
92 1 -0.131017 0.419327 1.94584 0 -0.5 -3.04648 0.015 0 0 -0.346714 0.0353429 
8 1 -0.104188 0.135463 1.98614 0 -0.5 -2.91375 0.025 0 0 -1.60516 0.163625 
26 1 -0.101985 0.208675 1.98202 0.14857 -0.341553 -3.01553 0.025 0 0 -1.60516 0.163625 
98 1 -0.147127 0.268442 1.9769 0 -0.5 -2.94475 0.015 0 0 -0.346714 0.0353429 
151 1 -0.0686397 0.350527 1.97658 0 -0.5 -2.94583 0.015 0 0 -0.346714 0.0353429 
100 1 -0.0681017 0.203921 2.008 0 -0.5 -2.83929 0.015 0 0 -0.346714 0.0353429 
140 1 -0.125739 0.245556 2.0054 0 -0.5 -2.84822 0.015 0 0 -0.346714 0.0353429 
3 1 -0.141317 0.333388 1.99038 0 -0.5 -2.89953 0.025 0 0 -1.60516 0.163625 
72 1 -0.105673 0.370796 1.99761 0 -0.5 -2.8749 0.015 0 0 -0.346714 0.0353429 
118 1 -0.0372647 0.405681 2.01071 0 -0.5 -2.82988 0.015 0 0 -0.346714 0.0353429 
40 1 -0.104474 0.422198 2.006 0 -0.5 -2.84616 0.025 0 0 -1.60516 0.163625 
117 1 -0.0596227 0.147021 2.01865 0 -0.5 -2.80221 0.015 0 0 -0.346714 0.0353429 
51 1 -0.150694 0.16725 2.02961 -0.0265052 -0.519812 -2.75031 0.025 0 0 -1.60516 0.163625 
90 1 -0.146535 0.423667 2.04837 0 -0.5 -2.69617 0.015 0 0 -0.346714 0.0353429 
60 1 -0.0770515 0.155928 2.05827 0 -0.5 -2.65987 0.015 0 0 -0.346714 0.0353429 
148 1 -0.118383 0.251817 2.05638 -0.171679 -0.397353 -2.85155 0.015 0 0 -0.346714 0.0353429 
11 1 -0.104535 0.306163 2.05915 0 -0.5 -2.65663 0.025 0 0 -1.60516 0.163625 
50 1 -0.130982 0.380355 2.05899 0 -0.5 -2.65722 0.025 0 0 -1.60516 0.163625 
74 1 -0.0790012 0.367893 2.07511 0 -0.5 -2.59709 0.015 0 0 -0.346714 0.0353429 
44 1 -0.125916 0.147597 2.08716 0 -0.5 -2.55108 0.025 0 0 -1.60516 0.163625 
36 1 -0.103411 0.194312 2.09684 0 -0.5 -2.5136 0.025 0 0 -1.60516 0.163625 
54 1 -0.129802 0.238002 2.10182 -0.0956439 -0.529683 -2.4623 0.015 0 0 -0.346714 0.0353429 
105 1 -0.106036 0.254446 2.08617 -0.215094 -0.173726 -2.72275 0.015 0 0 -0.346714 0.0353429 
29 1 -0.0788351 0.410182 2.09414 0 -0.5 -2.5241 0.025 0 0 -1.60516 0.163625 
76 1 -0.0202065 0.39607 2.08236 0 -0.5 -2.56952 0.015 0 0 -0.346714 0.0353429 
146 1 -0.109965 0.160916 2.13552 0 -0.5 -2.35782 0.015 0 0 -0.346714 0.0353429 
73 1 -0.0639552 0.173767 2.12586 0 -0.5 -2.39775 0.015 0 0 -0.346714 0.0353429 
114 1 -0.071908 0.224357 2.11265 -0.00040144 -0.499666 -2.45139 0.015 0 0 -0.346714 0.0353429 
2 1 -0.110349 0.321071 2.12833 0 -0.5 -2.38754 0.025 0 0 -1.60516 0.163625 
113 1 -0.118506 0.445198 2.12308 0 -0.5 -2.40903 0.015 0 0 -0.346714 0.0353429 
12 1 -0.0363281 0.430336 2.13487 0 -0.5 -2.36057 0.025 0 0 -1.60516 0.163625 
99 1 -0.146283 0.225517 2.1525 0 -0.5 -2.28611 0.015 0 0 -0.346714 0.0353429 
19 1 -0.0715757 0.235252 2.16878 0 -0.5 -2.21508 0.025 0 0 -1.60516 0.163625 
66 1 -0.0281121 0.212823 2.17045 0 -0.5 -2.20773 0.015 0 0 -0.346714 0.0353429 
83 1 -0.108229 0.255146 2.16722 0 -0.5 -2.22205 0.015 0 0 -0.346714 0.0353429 
57 1 -0.120673 0.277061 2.14709 0 -0.5 -2.30916 0.015 0 0 -0.346714 0.0353429 
88 1 -0.0666498 0.387919 2.14245 0 -0.5 -2.32888 0.015 0 0 -0.346714 0.0353429 
34 1 -0.138562 0.394511 2.16484 0 -0.5 -2.23255 0.025 0 0 -1.60516 0.163625 
81 1 -0.051385 0.395999 2.17203 0 -0.5 -2.20066 0.015 0 0 -0.346714 0.0353429 
67 1 -0.0183057 0.168389 2.18123 0 -0.5 -2.15927 0.015 0 0 -0.346714 0.0353429 
24 1 -0.138394 0.195452 2.18645 0 -0.5 -2.13543 0.025 0 0 -1.60516 0.163625 
103 1 -0.135939 0.239722 2.20176 0 -0.5 -2.06391 0.015 0 0 -0.346714 0.0353429 
133 1 -0.127566 0.311944 2.19011 0 -0.5 -2.11855 0.015 0 0 -0.346714 0.0353429 
10 1 -0.0984556 0.341413 2.18538 0.0597722 -0.394452 -2.28482 0.025 2.31551 3.87429 -7.29572 0.163625 
95 1 -0.10482 0.399312 2.19157 0 -0.5 -2.11178 0.015 0 0 -0.346714 0.0353429 
71 1 -0.145263 0.438198 2.17391 0 -0.5 -2.19233 0.015 0 0 -0.346714 0.0353429 
39 1 -0.0696793 0.44901 2.19162 0 -0.5 -2.11159 0.025 0 0 -1.60516 0.163625 
28 1 -0.0685748 0.19761 2.21685 -0 0 -2 0.025 0 0 0 0.163625 
96 1 -0.131998 0.220986 2.23139 -0 0 -2 0.015 0 0 0 0.0353429 
70 1 -0.107191 0.221924 2.20674 0 -0.5 -2.04007 0.015 0 0 -0.346714 0.0353429 
97 1 -0.0338223 0.225144 2.21325 0 -0.5 -2.00858 0.015 0 0 -0.346714 0.0353429 
115 1 -0.076478 0.260431 2.21341 0 -0.5 -2.0078 0.015 0 0 -0.346714 0.0353429 
126 1 -0.11117 0.322121 2.21719 -0 0 -2 0.015 0 0 0 0.0353429 
85 1 -0.13789 0.382015 2.21437 0 -0.5 -2.00309 0.015 0 0 -0.346714 0.0353429 
134 1 -0.137197 0.420922 2.22078 -0 0 -2 0.015 0 0 0 0.0353429 
77 1 -0.0297287 0.448599 2.2236 -0 0 -2 0.015 0 0 0 0.0353429 
120 1 -0.148569 0.468911 2.22442 -0 0 -2 0.015 0 0 0 0.0353429 
143 1 -0.11631 0.457682 2.20532 0 -0.5 -2.04694 0.015 0 0 -0.346714 0.0353429 
150 1 -0.100106 0.224977 2.26393 -0 0 -2 0.015 0 0 0 0.0353429 
38 1 -0.121616 0.260048 2.23957 -0 0 -2 0.025 0 0 0 0.163625 
130 1 -0.0642546 0.250466 2.25491 -0 0 -2 0.015 0 0 0 0.0353429 
23 1 -0.134189 0.392634 2.25455 -0 0 -2 0.025 0 0 0 0.163625 
4 1 -0.0330873 0.468582 2.26412 -0 0 -2 0.025 0 0 0 0.163625 
110 1 -0.0868918 0.176082 2.28035 -0 0 -2 0.015 0 0 0 0.0353429 
31 1 -0.140814 0.189187 2.26977 -0 0 -2 0.025 0 0 0 0.163625 
93 1 -0.0244706 0.186478 2.28573 -0 0 -2 0.015 0 0 0 0.0353429 
17 1 -0.134634 0.299667 2.28845 -0 0 -2 0.025 0 0 0 0.163625 
136 1 -0.0832352 0.392978 2.28713 -0 0 -2 0.015 0 0 0 0.0353429 
30 1 -0.0481876 0.420042 2.29027 -0 0 -2 0.025 0 0 0 0.163625 
18 1 -0.106015 0.455331 2.26442 -0 0 -2 0.025 0 0 0 0.163625 
109 1 -0.0676248 0.46737 2.28984 -0 0 -2 0.015 0 0 0 0.0353429 
108 1 -0.089121 0.201884 2.30678 -0 0 -2 0.015 0 0 0 0.0353429 
69 1 -0.020474 0.219918 2.31567 -0 0 -2 0.015 0 0 0 0.0353429 
35 1 -0.146938 0.392962 2.31832 -0 0 -2 0.025 0 0 0 0.163625 
106 1 -0.102883 0.446824 2.31443 -0 0 -2 0.015 0 0 0 0.0353429 
102 1 -0.11709 0.195969 2.33074 -0 0 -2 0.015 0 0 0 0.0353429 
14 1 -0.0571303 0.18696 2.33507 -0 0 -2 0.025 0 0 0 0.163625 
141 1 -0.136875 0.266764 2.34101 -0 0 -2 0.015 0 0 0 0.0353429 
139 1 -0.104092 0.253657 2.33067 -0 0 -2 0.015 0 0 0 0.0353429 
144 1 -0.0691235 0.256654 2.3303 -0 0 -2 0.015 0 0 0 0.0353429 
22 1 -0.102489 0.321901 2.32863 -0 0 -2 0.025 0 0 0 0.163625 
87 1 -0.113676 0.385123 2.35287 -0 0 -2 0.015 0 0 0 0.0353429 
55 1 -0.0959971 0.425903 2.33697 -0 0 -2 0.015 0 0 0 0.0353429 
1 1 -0.142366 0.459394 2.35037 -0 0 -2 0.025 0 0 0 0.163625 
21 1 -0.0470047 0.46853 2.34688 -0 0 -2 0.025 0 0 0 0.163625 
107 1 -0.141609 0.176798 2.36362 -0 0 -2 0.015 0 0 0 0.0353429 
142 1 -0.0724928 0.196693 2.38323 -0 0 -2 0.015 0 0 0 0.0353429 
149 1 -0.107316 0.253342 2.3829 -0 0 -2 0.015 0 0 0 0.0353429 
112 1 -0.073338 0.257454 2.37431 -0 0 -2 0.015 0 0 0 0.0353429 
94 1 -0.127866 0.29863 2.36984 -0 0 -2 0.015 0 0 0 0.0353429 
84 1 -0.116406 0.338316 2.3729 -0 0 -2 0.015 0 0 0 0.0353429 
47 1 -0.140465 0.419385 2.38327 -0 0 -2 0.025 0 0 0 0.163625 
145 1 -0.0934491 0.411838 2.38412 -0 0 -2 0.015 0 0 0 0.0353429 
147 1 -0.100309 0.450661 2.37009 -0 0 -2 0.015 0 0 0 0.0353429 
32 1 -0.149633 0.185622 2.40266 -0 0 -2 0.025 0 0 0 0.163625 
138 1 -0.0317395 0.192376 2.41076 -0 0 -2 0.015 0 0 0 0.0353429 
6 1 -0.109435 0.215083 2.39484 -0 0 -2 0.025 0 0 0 0.163625 
135 1 -0.140472 0.259953 2.40276 -0 0 -2 0.015 0 0 0 0.0353429 
15 1 -0.0916636 0.308509 2.39668 -0 0 -2 0.025 0 0 0 0.163625 
128 1 -0.145291 0.342562 2.41147 -0 0 -2 0.015 0 0 0 0.0353429 
80 1 -0.102893 0.380978 2.39068 -0 0 -2 0.015 0 0 0 0.0353429 
62 1 -0.0849655 0.467496 2.40266 -0 0 -2 0.015 0 0 0 0.0353429 
129 1 -0.0553418 0.210019 2.43572 -0 0 -2 0.015 0 0 0 0.0353429 
13 1 -0.146779 0.291061 2.44206 -0 0 -2 0.025 0 0 0 0.163625 
101 1 -0.102489 0.301504 2.44029 -0 0 -2 0.015 0 0 0 0.0353429 
37 1 -0.0716655 0.404405 2.44005 -0 0 -2 0.025 0 0 0 0.163625 
121 1 -0.0679495 0.444838 2.41997 -0 0 -2 0.015 0 0 0 0.0353429 
46 1 -0.032303 0.465744 2.44231 -0 0 -2 0.025 0 0 0 0.163625 
61 1 -0.0231802 0.176945 2.44697 -0 0 -2 0.015 0 0 0 0.0353429 
52 1 -0.100497 0.1916 2.45056 -0 0 -2 0.015 0 0 0 0.0353429 
79 1 -0.0179342 0.210984 2.447 -0 0 -2 0.015 0 0 0 0.0353429 
5 1 -0.137704 0.218352 2.45525 -0 0 -2 0.025 0 0 0 0.163625 
7 1 -0.0712578 0.257024 2.45671 -0 0 -2 0.025 0 0 0 0.163625 
20 1 -0.124339 0.346193 2.4538 -0 0 -2 0.025 0 0 0 0.163625 
86 1 -0.142939 0.382764 2.47219 -0 0 -2 0.015 0 0 0 0.0353429 
91 1 -0.124131 0.396082 2.44721 -0 0 -2 0.015 0 0 0 0.0353429 
9 1 -0.0320364 0.416484 2.47371 -0 0 -2 0.025 0 0 0 0.163625 
65 1 -0.147981 0.187337 2.48604 -0 0 -2 0.015 0 0 0 0.0353429 
58 1 -0.0969698 0.285666 2.47991 -0 0 -2 0.015 0 0 0 0.0353429 
104 1 -0.138444 0.347252 2.50286 -0 0 -2 0.015 0 0 0 0.0353429 
124 1 -0.136447 0.411167 2.47985 -0 0 -2 0.015 0 0 0 0.0353429 
131 1 -0.025873 0.449155 2.49854 -0 0 -2 0.015 0 0 0 0.0353429 
41 1 -0.107908 0.465288 2.48489 -0 0 -2 0.025 0 0 0 0.163625 
49 1 -0.0613084 0.18937 2.52036 -0 0 -2 0.025 0 0 0 0.163625 
132 1 -0.0234712 0.214078 2.51138 -0 0 -2 0.015 0 0 0 0.0353429 
48 1 -0.144727 0.271852 2.51101 -0 0 -2 0.025 0 0 0 0.163625 
53 1 -0.106432 0.3161 2.51198 -0 0 -2 0.015 0 0 0 0.0353429 
16 1 -0.129915 0.412384 2.5218 -0 0 -2 0.025 0 0 0 0.163625 
82 1 -0.0851821 0.402207 2.52469 -0 0 -2 0.015 0 0 0 0.0353429 
27 1 -0.0637137 0.439115 2.52209 -0 0 -2 0.025 0 0 0 0.163625 
63 1 -0.147823 0.467223 2.52896 -0 0 -2 0.015 0 0 0 0.0353429 
25 1 -0.104447 0.217985 2.54221 -0 0 -2 0.025 0 0 0 0.163625 
127 1 -0.0304133 0.231126 2.53699 -0 0 -2 0.015 0 0 0 0.0353429 
42 1 -0.132916 0.309326 2.54888 -0 0 -2 0.025 0 0 0 0.163625 
123 1 -0.11925 0.365597 2.55058 -0 0 -2 0.015 0 0 0 0.0353429 
125 1 -0.0960051 0.419402 2.55792 -0 0 -2 0.015 0 0 0 0.0353429 
64 1 -0.145219 0.427667 2.55704 -0 0 -2 0.015 0 0 0 0.0353429 
56 1 -0.11556 0.462639 2.53692 -0 0 -2 0.015 0 0 0 0.0353429 
289 1 0.0944144 0.275778 1.84093 0.0203384 -0.134604 -3.62431 0.015 0 0 -0.346714 0.0353429 
284 1 0.0765149 0.146696 1.88669 0 -0.5 -3.2313 0.015 0 0 -0.346714 0.0353429 
272 1 0.0168276 0.389548 1.89417 0 -0.5 -3.20854 0.015 0 0 -0.346714 0.0353429 
203 1 0.0667127 0.115233 1.89702 0 -0.5 -3.19981 0.015 0 0 -0.346714 0.0353429 
263 1 0.025742 0.176494 1.92017 0 -0.5 -3.128 0.015 0 0 -0.346714 0.0353429 
206 1 0.0827865 0.171292 1.90575 0.0985113 -0.67138 -3.31462 0.015 0 0 -0.346714 0.0353429 
237 1 0.117019 0.176451 1.90829 0 -0.5 -3.16508 0.015 0 0 -0.346714 0.0353429 
259 1 0.149131 0.155826 1.91283 0 -0.5 -3.15096 0.015 0 0 -0.346714 0.0353429 
199 1 0.0905065 0.228528 1.91448 -0.00278668 -0.321029 -3.29597 0.025 0 0 -1.60516 0.163625 
171 1 0.0955264 0.317107 1.91243 0 -0.5 -3.15223 0.025 0 0 -1.60516 0.163625 
214 1 0.144386 0.301733 1.90295 0 -0.5 -3.18157 0.015 0 0 -0.346714 0.0353429 
213 1 0.0350777 0.35457 1.89711 0 -0.5 -3.19952 0.015 0 0 -0.346714 0.0353429 
241 1 0.0849537 0.385018 1.90578 0 -0.5 -3.17283 0.015 0 0 -0.346714 0.0353429 
226 1 0.110692 0.363304 1.90937 0 -0.5 -3.16175 0.015 0 0 -0.346714 0.0353429 
220 1 0.0327778 0.143862 1.93572 -0.0669262 -0.554313 -3.06579 0.015 0 0 -0.346714 0.0353429 
177 1 0.133684 0.26478 1.93817 0.121927 -0.355542 -3.06564 0.025 -0.0897077 -0.39839 -1.74437 0.163625 
290 1 0.140367 0.30154 1.95221 0.000800613 -0.496453 -3.02464 0.015 0.0897077 0.39839 -0.207506 0.0353429 
249 1 0.0491797 0.355421 1.97196 0 -0.5 -2.96113 0.015 0 0 -0.346714 0.0353429 
270 1 0.0946744 0.347669 1.97972 0 -0.5 -2.93533 0.015 0 0 -0.346714 0.0353429 
166 1 0.0609489 0.419253 1.96197 0 -0.5 -2.9941 0.025 0 0 -1.60516 0.163625 
184 1 0.11251 0.417841 1.95833 0 -0.5 -3.00597 0.025 0 0 -1.60516 0.163625 
180 1 0.0436441 0.1743 2.01191 -0.021889 -0.504465 -2.81358 0.025 0 0 -1.60516 0.163625 
216 1 0.0793237 0.176192 1.99025 0.0481324 -0.610657 -2.85817 0.015 0 0 -0.346714 0.0353429 
222 1 0.123753 0.157661 1.99132 0 -0.5 -2.89629 0.015 0 0 -0.346714 0.0353429 
253 1 0.123075 0.265069 2.01503 0 -0.5 -2.81487 0.015 0 0 -0.346714 0.0353429 
170 1 0.144995 0.316914 2.00788 0.161731 -0.381986 -2.86787 0.025 0 0 -1.60516 0.163625 
231 1 0.0350342 0.37762 2.01179 0 -0.5 -2.82615 0.015 0 0 -0.346714 0.0353429 
294 1 0.128315 0.380152 1.98889 0 -0.5 -2.90453 0.015 0 0 -0.346714 0.0353429 
209 1 0.0969746 0.153248 2.04062 0 -0.5 -2.72422 0.015 0 0 -0.346714 0.0353429 
282 1 0.0794347 0.272349 2.02704 -0.2609 -0.673185 -2.73013 0.015 0 0 -0.346714 0.0353429 
169 1 0.0892107 0.386668 2.02446 0 -0.5 -2.78181 0.025 0 0 -1.60516 0.163625 
296 1 0.146983 0.269001 2.06051 0 -0.5 -2.65163 0.015 0 0 -0.346714 0.0353429 
278 1 0.113612 0.287965 2.0595 0 -0.5 -2.65536 0.015 0 0 -0.346714 0.0353429 
162 1 0.0478022 0.390457 2.07733 0 -0.5 -2.58865 0.025 0 0 -1.60516 0.163625 
257 1 0.139837 0.400641 2.05977 0 -0.5 -2.65438 0.015 0 0 -0.346714 0.0353429 
153 1 0.0895866 0.15076 2.10506 0 -0.5 -2.48133 0.025 0 0 -1.60516 0.163625 
235 1 0.134937 0.156385 2.08814 0 -0.5 -2.54735 0.015 0 0 -0.346714 0.0353429 
168 1 0.0261487 0.190104 2.08164 0 -0.5 -2.57227 0.025 0 0 -1.60516 0.163625 
269 1 0.141487 0.185504 2.08009 0 -0.5 -2.57815 0.015 0 0 -0.346714 0.0353429 
185 1 0.0936576 0.234666 2.09183 0 -0.5 -2.53312 0.025 0 0 -1.60516 0.163625 
217 1 0.133752 0.235691 2.08733 0 -0.5 -2.55049 0.015 0 0 -0.346714 0.0353429 
182 1 0.114565 0.345779 2.08529 0 -0.5 -2.55834 0.025 0 0 -1.60516 0.163625 
176 1 0.0399362 0.442472 2.08737 0 -0.5 -2.55029 0.025 0 0 -1.60516 0.163625 
286 1 0.147755 0.43487 2.08676 0 -0.5 -2.55265 0.015 0 0 -0.346714 0.0353429 
211 1 0.0694768 0.208972 2.11542 0 -0.5 -2.44003 0.015 0 0 -0.346714 0.0353429 
204 1 0.134881 0.197248 2.13585 0 -0.5 -2.35645 0.015 0 0 -0.346714 0.0353429 
161 1 0.135356 0.25485 2.13532 0 -0.5 -2.3587 0.025 0 0 -1.60516 0.163625 
251 1 0.126174 0.303559 2.11187 0 -0.5 -2.45425 0.015 0 0 -0.346714 0.0353429 
291 1 0.140432 0.379523 2.1232 0 -0.5 -2.40854 0.015 0 0 -0.346714 0.0353429 
228 1 0.0279693 0.404593 2.13946 0 -0.5 -2.34144 0.015 0 0 -0.346714 0.0353429 
159 1 0.087245 0.438208 2.1239 0 -0.5 -2.40569 0.025 0 0 -1.60516 0.163625 
300 1 0.149285 0.43224 2.13061 0 -0.5 -2.37822 0.015 0 0 -0.346714 0.0353429 
175 1 0.0941494 0.190059 2.15437 0 -0.5 -2.27806 0.025 0 0 -1.60516 0.163625 
293 1 0.0548164 0.229145 2.17143 0 -0.5 -2.20341 0.015 0 0 -0.346714 0.0353429 
230 1 0.118982 0.295372 2.14439 0 -0.5 -2.32064 0.015 0 0 -0.346714 0.0353429 
192 1 0.134392 0.353049 2.16657 0 -0.5 -2.22489 0.025 0 0 -1.60516 0.163625 
285 1 0.0870748 0.390259 2.16742 0 -0.5 -2.22117 0.015 0 0 -0.346714 0.0353429 
256 1 0.0868225 0.422057 2.16465 0 -0.5 -2.23333 0.015 0 0 -0.346714 0.0353429 
250 1 0.138716 0.436193 2.16331 0 -0.5 -2.23922 0.015 0 0 -0.346714 0.0353429 
246 1 0.0494565 0.45701 2.16779 0 -0.5 -2.2195 0.015 0 0 -0.346714 0.0353429 
240 1 0.0956629 0.45388 2.16899 0 -0.5 -2.2142 0.015 0 0 -0.346714 0.0353429 
202 1 0.126943 0.188119 2.18994 0 -0.5 -2.11934 0.015 0 0 -0.346714 0.0353429 
299 1 0.0153001 0.213541 2.17541 0 -0.5 -2.18556 0.015 0 0 -0.346714 0.0353429 
245 1 0.0868358 0.213715 2.19529 0 -0.5 -2.09442 0.015 0 0 -0.346714 0.0353429 
200 1 0.112803 0.246149 2.18362 0 -0.5 -2.14847 0.025 0 0 -1.60516 0.163625 
255 1 0.0340792 0.404865 2.1867 0 -0.5 -2.13425 0.015 0 0 -0.346714 0.0353429 
252 1 0.131256 0.413424 2.18671 0 -0.5 -2.13425 0.015 0 0 -0.346714 0.0353429 
275 1 0.0211058 0.436962 2.17453 0 -0.5 -2.18948 0.015 0 0 -0.346714 0.0353429 
287 1 0.130384 0.17682 2.22113 -0 0 -2 0.015 0 0 0 0.0353429 
189 1 0.0509787 0.187512 2.20708 0 -0.5 -2.0385 0.025 0 0 -1.60516 0.163625 
288 1 0.0326968 0.220656 2.22617 -0 0 -2 0.015 0 0 0 0.0353429 
247 1 0.0532922 0.241565 2.20388 0 -0.5 -2.05381 0.015 0 0 -0.346714 0.0353429 
154 1 0.116388 0.333122 2.213 0 -0.5 -2.00976 0.025 0 0 -1.60516 0.163625 
295 1 0.103955 0.389653 2.2277 -0 0 -2 0.015 0 0 0 0.0353429 
156 1 0.0411221 0.437707 2.22894 -0 0 -2 0.025 0 0 0 0.163625 
190 1 0.11779 0.446077 2.21762 -0 0 -2 0.025 0 0 0 0.163625 
210 1 0.0872868 0.178716 2.24168 -0 0 -2 0.015 0 0 0 0.0353429 
260 1 0.0198171 0.221855 2.26007 -0 0 -2 0.015 0 0 0 0.0353429 
181 1 0.070397 0.216714 2.24554 -0 0 -2 0.025 0 0 0 0.163625 
165 1 0.148355 0.269976 2.23987 -0 0 -2 0.025 0 0 0 0.163625 
152 1 0.089118 0.280769 2.25652 -0 0 -2 0.025 0 0 0 0.163625 
279 1 0.11959 0.339787 2.26116 -0 0 -2 0.015 0 0 0 0.0353429 
234 1 0.0945525 0.423196 2.26171 -0 0 -2 0.015 0 0 0 0.0353429 
233 1 0.0406697 0.190327 2.26687 -0 0 -2 0.015 0 0 0 0.0353429 
262 1 0.0888361 0.372678 2.26432 -0 0 -2 0.015 0 0 0 0.0353429 
207 1 0.128901 0.387724 2.27366 -0 0 -2 0.015 0 0 0 0.0353429 
194 1 0.131621 0.447751 2.27216 -0 0 -2 0.025 0 0 0 0.163625 
223 1 0.0343911 0.467936 2.28155 -0 0 -2 0.015 0 0 0 0.0353429 
208 1 0.0680799 0.458746 2.26503 -0 0 -2 0.015 0 0 0 0.0353429 
178 1 0.0370442 0.176531 2.31348 -0 0 -2 0.025 0 0 0 0.163625 
212 1 0.0737637 0.196713 2.2961 -0 0 -2 0.015 0 0 0 0.0353429 
236 1 0.111584 0.210187 2.29611 -0 0 -2 0.015 0 0 0 0.0353429 
224 1 0.132465 0.234727 2.31354 -0 0 -2 0.015 0 0 0 0.0353429 
221 1 0.0987988 0.270466 2.31823 -0 0 -2 0.015 0 0 0 0.0353429 
242 1 0.131055 0.286068 2.30637 -0 0 -2 0.015 0 0 0 0.0353429 
191 1 0.0609008 0.410844 2.29804 -0 0 -2 0.025 0 0 0 0.163625 
258 1 0.135516 0.183364 2.33348 -0 0 -2 0.015 0 0 0 0.0353429 
187 1 0.0681893 0.23526 2.34152 -0 0 -2 0.025 0 0 0 0.163625 
179 1 0.136485 0.334335 2.32933 -0 0 -2 0.025 0 0 0 0.163625 
248 1 0.0851139 0.371469 2.33656 -0 0 -2 0.015 0 0 0 0.0353429 
157 1 0.115469 0.419287 2.3435 -0 0 -2 0.025 0 0 0 0.163625 
264 1 0.0357265 0.464363 2.33767 -0 0 -2 0.015 0 0 0 0.0353429 
277 1 0.0674794 0.455945 2.34445 -0 0 -2 0.015 0 0 0 0.0353429 
205 1 0.0941484 0.176621 2.35985 -0 0 -2 0.015 0 0 0 0.0353429 
201 1 0.0267726 0.186335 2.37943 -0 0 -2 0.025 0 0 0 0.163625 
276 1 0.0937292 0.21136 2.37347 -0 0 -2 0.015 0 0 0 0.0353429 
227 1 0.137271 0.1866 2.36532 -0 0 -2 0.015 0 0 0 0.0353429 
232 1 0.13999 0.251489 2.35533 -0 0 -2 0.015 0 0 0 0.0353429 
158 1 0.0866624 0.276126 2.37874 -0 0 -2 0.025 0 0 0 0.163625 
254 1 0.137401 0.322401 2.38436 -0 0 -2 0.015 0 0 0 0.0353429 
172 1 0.128434 0.362446 2.37447 -0 0 -2 0.025 0 0 0 0.163625 
174 1 0.030822 0.423363 2.35581 -0 0 -2 0.025 0 0 0 0.163625 
229 1 0.102013 0.176876 2.413 -0 0 -2 0.015 0 0 0 0.0353429 
265 1 0.115746 0.204637 2.39681 -0 0 -2 0.015 0 0 0 0.0353429 
225 1 0.0772421 0.22912 2.39496 -0 0 -2 0.015 0 0 0 0.0353429 
271 1 0.0988759 0.311205 2.40176 -0 0 -2 0.015 0 0 0 0.0353429 
274 1 0.108637 0.339608 2.4011 -0 0 -2 0.015 0 0 0 0.0353429 
183 1 0.0737852 0.400871 2.40543 -0 0 -2 0.025 0 0 0 0.163625 
283 1 0.102888 0.442022 2.39145 -0 0 -2 0.015 0 0 0 0.0353429 
173 1 0.0548933 0.463589 2.39484 -0 0 -2 0.025 0 0 0 0.163625 
196 1 0.0520917 0.20732 2.42278 -0 0 -2 0.025 0 0 0 0.163625 
163 1 0.107222 0.236676 2.42843 -0 0 -2 0.025 0 0 0 0.163625 
155 1 0.141768 0.302505 2.42915 -0 0 -2 0.025 0 0 0 0.163625 
268 1 0.140569 0.388665 2.43804 -0 0 -2 0.015 0 0 0 0.0353429 
281 1 0.0312292 0.432852 2.41863 -0 0 -2 0.015 0 0 0 0.0353429 
188 1 0.140755 0.442261 2.42441 -0 0 -2 0.025 0 0 0 0.163625 
280 1 0.0367193 0.456786 2.43977 -0 0 -2 0.015 0 0 0 0.0353429 
267 1 0.101401 0.464343 2.43738 -0 0 -2 0.015 0 0 0 0.0353429 
218 1 0.0164873 0.217058 2.46437 -0 0 -2 0.015 0 0 0 0.0353429 
298 1 0.114914 0.351461 2.45645 -0 0 -2 0.015 0 0 0 0.0353429 
197 1 0.0581936 0.42558 2.45616 -0 0 -2 0.025 0 0 0 0.163625 
273 1 0.0779061 0.461373 2.45784 -0 0 -2 0.015 0 0 0 0.0353429 
164 1 0.0527853 0.200711 2.50068 -0 0 -2 0.025 0 0 0 0.163625 
160 1 0.118533 0.219824 2.49438 -0 0 -2 0.025 0 0 0 0.163625 
215 1 0.0767991 0.264474 2.50377 -0 0 -2 0.015 0 0 0 0.0353429 
297 1 0.141884 0.27502 2.50154 -0 0 -2 0.015 0 0 0 0.0353429 
238 1 0.105443 0.363301 2.48441 -0 0 -2 0.015 0 0 0 0.0353429 
195 1 0.147227 0.360394 2.49052 -0 0 -2 0.025 0 0 0 0.163625 
292 1 0.0287531 0.422464 2.50368 -0 0 -2 0.015 0 0 0 0.0353429 
167 1 0.118751 0.462916 2.48872 -0 0 -2 0.025 0 0 0 0.163625 
261 1 0.0852607 0.230216 2.5189 -0 0 -2 0.015 0 0 0 0.0353429 
186 1 0.10183 0.291927 2.53608 -0 0 -2 0.025 0 0 0 0.163625 
243 1 0.113126 0.365244 2.5215 -0 0 -2 0.015 0 0 0 0.0353429 
193 1 0.102412 0.413293 2.51652 -0 0 -2 0.025 0 0 0 0.163625 
198 1 0.0617553 0.466461 2.51662 -0 0 -2 0.025 0 0 0 0.163625 
219 1 0.0278687 0.201322 2.54655 -0 0 -2 0.015 0 0 0 0.0353429 
239 1 0.126558 0.237343 2.54331 -0 0 -2 0.015 0 0 0 0.0353429 
266 1 0.0917737 0.36017 2.55311 -0 0 -2 0.015 0 0 0 0.0353429 
244 1 0.0497502 0.427977 2.53971 -0 0 -2 0.015 0 0 0 0.0353429 
