ITEM: TIMESTEP
52800
ITEM: NUMBER OF ATOMS
600
ITEM: BOX BOUNDS mm mm mm
-1 1
-1 1
-0.329629 2.85
ITEM: ATOMS id type x y z vx vy vz radius fx fy fz mass 
68 1 -0.0997213 -0.0187286 -0.144323 0 -0.5 -7.09154 0.015 0 0 -0.346714 0.0353429 
137 1 -0.0900741 0.0319003 -0.127262 -0.00924354 -0.479856 -7.06868 0.015 0 0 -0.346714 0.0353429 
45 1 -0.0943793 -0.0677624 -0.107725 0 -0.5 -7.04072 0.025 0 0 -1.60516 0.163625 
122 1 -0.0687278 -0.0140664 -0.107033 0.00811842 -0.517403 -7.0391 0.015 0 0 -0.346714 0.0353429 
33 1 -0.129286 0.172605 -0.115548 0 -0.5 -7.05161 0.025 0 0 -1.60516 0.163625 
119 1 -0.0370509 -0.0788114 -0.0699055 0 -0.5 -6.98785 0.015 0 0 -0.346714 0.0353429 
43 1 -0.116198 0.0837854 -0.0806175 0 -0.5 -7.00285 0.025 0 0 -1.60516 0.163625 
78 1 -0.0422369 0.179955 -0.0599344 0 -0.5 -6.97382 0.015 0 0 -0.346714 0.0353429 
111 1 -0.0487783 0.2161 -0.07985 0 -0.5 -7.00178 0.015 0 0 -0.346714 0.0353429 
75 1 -0.0493142 -0.0283279 -0.04768 0 -0.5 -6.95655 0.015 0 0 -0.346714 0.0353429 
89 1 -0.129145 0.000307878 -0.0394691 0 -0.5 -6.94498 0.015 0 0 -0.346714 0.0353429 
59 1 -0.0865612 0.128868 -0.0213088 0 -0.5 -6.91927 0.015 0 0 -0.346714 0.0353429 
92 1 -0.131017 0.223327 -0.00209988 0 -0.5 -6.892 0.015 0 0 -0.346714 0.0353429 
26 1 -0.0437459 0.0747863 0.0462133 0.14857 -0.341553 -6.86105 0.025 0 0 -1.60516 0.163625 
8 1 -0.104188 -0.060537 0.0902314 0 -0.5 -6.75927 0.025 0 0 -1.60516 0.163625 
98 1 -0.147127 0.0724418 0.068832 0 -0.5 -6.79027 0.015 0 0 -0.346714 0.0353429 
151 1 -0.0686397 0.154527 0.0680955 0 -0.5 -6.79135 0.015 0 0 -0.346714 0.0353429 
3 1 -0.141317 0.137388 0.10004 0 -0.5 -6.74505 0.025 0 0 -1.60516 0.163625 
72 1 -0.105673 0.174796 0.116929 0 -0.5 -6.72042 0.015 0 0 -0.346714 0.0353429 
100 1 -0.0681017 0.00792101 0.141271 0 -0.5 -6.68481 0.015 0 0 -0.346714 0.0353429 
140 1 -0.125739 0.0495564 0.135179 0 -0.5 -6.69374 0.015 0 0 -0.346714 0.0353429 
40 1 -0.104474 0.226198 0.136578 0 -0.5 -6.69168 0.025 0 0 -1.60516 0.163625 
118 1 -0.0372647 0.209681 0.14768 0 -0.5 -6.6754 0.015 0 0 -0.346714 0.0353429 
117 1 -0.0596227 -0.0489792 0.166461 0 -0.5 -6.64773 0.015 0 0 -0.346714 0.0353429 
51 1 -0.161084 -0.0365168 0.19777 -0.0265052 -0.519812 -6.59583 0.025 0 0 -1.60516 0.163625 
282 1 -0.022838 0.00846064 0.203101 -0.2609 -0.673185 -6.57565 0.015 0 0 -0.346714 0.0353429 
148 1 -0.185681 0.0960551 0.184848 -0.171679 -0.397353 -6.69707 0.015 0 0 -0.346714 0.0353429 
90 1 -0.146535 0.227667 0.23775 0 -0.5 -6.54169 0.015 0 0 -0.346714 0.0353429 
60 1 -0.0770515 -0.0400724 0.261877 0 -0.5 -6.50539 0.015 0 0 -0.346714 0.0353429 
11 1 -0.0972395 0.123571 0.253712 0.022917 -0.457889 -6.53455 0.025 0 0 -1.60516 0.163625 
50 1 -0.130982 0.184355 0.26364 0 -0.5 -6.50274 0.025 0 0 -1.60516 0.163625 
74 1 -0.0790012 0.171893 0.303326 0 -0.5 -6.44261 0.015 0 0 -0.346714 0.0353429 
44 1 -0.125916 -0.0484035 0.33342 0 -0.5 -6.3966 0.025 0 0 -1.60516 0.163625 
105 1 -0.224131 0.124271 0.312892 -0.321192 -0.368687 -6.41826 0.015 0 0 -0.346714 0.0353429 
76 1 -0.0202065 0.20007 0.321386 0 -0.5 -6.41504 0.015 0 0 -0.346714 0.0353429 
36 1 -0.103411 -0.00168755 0.357782 0 -0.5 -6.35912 0.025 0 0 -1.60516 0.163625 
29 1 -0.0788351 0.214182 0.350974 0 -0.5 -6.36962 0.025 0 0 -1.60516 0.163625 
54 1 -0.167294 0.0303661 0.382877 -0.0956439 -0.529683 -6.30782 0.015 0 0 -0.346714 0.0353429 
114 1 -0.0720653 0.028488 0.397984 -0.00040144 -0.499666 -6.29691 0.015 0 0 -0.346714 0.0353429 
113 1 -0.118506 0.249198 0.425016 0 -0.5 -6.25455 0.015 0 0 -0.346714 0.0353429 
146 1 -0.109965 -0.0350837 0.457532 0 -0.5 -6.20334 0.015 0 0 -0.346714 0.0353429 
73 1 -0.0639552 -0.0222333 0.432217 0 -0.5 -6.24327 0.015 0 0 -0.346714 0.0353429 
2 1 -0.110349 0.125071 0.438694 0 -0.5 -6.23306 0.025 0 0 -1.60516 0.163625 
12 1 -0.0363281 0.234336 0.455809 0 -0.5 -6.20609 0.025 0 0 -1.60516 0.163625 
57 1 -0.120673 0.0810605 0.488178 0 -0.5 -6.15468 0.015 0 0 -0.346714 0.0353429 
88 1 -0.0666498 0.191919 0.475802 0 -0.5 -6.1744 0.015 0 0 -0.346714 0.0353429 
99 1 -0.146283 0.0295171 0.502626 0 -0.5 -6.13163 0.015 0 0 -0.346714 0.0353429 
10 1 -0.0695846 0.197199 0.515683 0.0635655 -0.375939 -6.18832 0.025 0 0 -1.60516 0.163625 
19 1 -0.0715757 0.0392524 0.54675 0 -0.5 -6.0606 0.025 0 0 -1.60516 0.163625 
83 1 -0.108229 0.059146 0.542455 0 -0.5 -6.06757 0.015 0 0 -0.346714 0.0353429 
34 1 -0.138562 0.198511 0.535956 0 -0.5 -6.07807 0.025 0 0 -1.60516 0.163625 
66 1 -0.0281121 0.0168228 0.551299 0 -0.5 -6.05325 0.015 0 0 -0.346714 0.0353429 
81 1 -0.0398304 0.209253 0.562519 0.07636 -0.438847 -6.00076 0.015 0 0 -0.346714 0.0353429 
71 1 -0.145263 0.242198 0.5608 0 -0.5 -6.03785 0.015 0 0 -0.346714 0.0353429 
67 1 -0.0183057 -0.0276113 0.581074 0 -0.5 -6.00479 0.015 0 0 -0.346714 0.0353429 
24 1 -0.138394 -0.000548115 0.595644 0 -0.5 -5.98095 0.025 0 0 -1.60516 0.163625 
133 1 -0.127566 0.115944 0.605919 0 -0.5 -5.96407 0.015 0 0 -0.346714 0.0353429 
95 1 -0.10482 0.203312 0.610024 0 -0.5 -5.9573 0.015 0 0 -0.346714 0.0353429 
103 1 -0.135939 0.0437223 0.638986 0 -0.5 -5.90943 0.015 0 0 -0.346714 0.0353429 
39 1 -0.0696793 0.25301 0.610157 0 -0.5 -5.95711 0.025 0 0 -1.60516 0.163625 
70 1 -0.107191 0.0259244 0.653309 0 -0.5 -5.88559 0.015 0 0 -0.346714 0.0353429 
143 1 -0.11631 0.261682 0.649195 0 -0.5 -5.89246 0.015 0 0 -0.346714 0.0353429 
28 1 -0.0685748 0.0020701 0.682684 0 -0.5 -5.83645 0.025 0 0 -1.60516 0.163625 
97 1 -0.0338223 0.029144 0.672161 0 -0.5 -5.8541 0.015 0 0 -0.346714 0.0353429 
115 1 -0.076478 0.0644311 0.672635 0 -0.5 -5.85332 0.015 0 0 -0.346714 0.0353429 
85 1 -0.13789 0.186015 0.675439 0 -0.5 -5.84861 0.015 0 0 -0.346714 0.0353429 
134 1 -0.137197 0.226367 0.694153 0 -0.5 -5.81712 0.015 0 0 -0.346714 0.0353429 
96 1 -0.131998 0.0290814 0.724855 0 -0.5 -5.76513 0.015 0 0 -0.346714 0.0353429 
126 1 -0.122447 0.111269 0.708206 -0.0288748 -0.539424 -5.77195 0.015 0 0 -0.346714 0.0353429 
77 1 -0.0297287 0.254749 0.702342 0 -0.5 -5.80329 0.015 0 0 -0.346714 0.0353429 
120 1 -0.148569 0.275261 0.704679 0 -0.5 -5.79936 0.015 0 0 -0.346714 0.0353429 
38 1 -0.121616 0.0701879 0.748352 0 -0.5 -5.725 0.025 0 0 -1.60516 0.163625 
130 1 -0.0642546 0.0644407 0.791972 0 -0.5 -5.64976 0.015 0 0 -0.346714 0.0353429 
23 1 -0.134189 0.206519 0.790959 0 -0.5 -5.65153 0.025 0 0 -1.60516 0.163625 
150 1 -0.100106 0.0412069 0.817355 0 -0.5 -5.60552 0.015 0 0 -0.346714 0.0353429 
18 1 -0.106015 0.271686 0.818748 0 -0.5 -5.60307 0.025 0 0 -1.60516 0.163625 
4 1 -0.0330873 0.284857 0.817865 0 -0.5 -5.60464 0.025 0 0 -1.60516 0.163625 
31 1 -0.140814 0.00687727 0.833679 0 -0.5 -5.57687 0.025 0 0 -1.60516 0.163625 
106 1 -0.136271 0.365802 0.846207 -0.0998962 -0.230395 -5.68561 0.015 0 0 -0.346714 0.0353429 
110 1 -0.0868918 -0.0035835 0.863045 0 -0.5 -5.52498 0.015 0 0 -0.346714 0.0353429 
93 1 -0.0244706 0.00815779 0.87787 0 -0.5 -5.49859 0.015 0 0 -0.346714 0.0353429 
136 1 -0.0832352 0.215008 0.88172 0 -0.5 -5.49172 0.015 0 0 -0.346714 0.0353429 
17 1 -0.134634 0.122027 0.885338 0 -0.5 -5.48525 0.025 0 0 -1.60516 0.163625 
30 1 -0.0481876 0.242857 0.89033 0 -0.5 -5.47632 0.025 0 0 -1.60516 0.163625 
109 1 -0.0676248 0.29008 0.889168 0 -0.5 -5.47838 0.015 0 0 -0.346714 0.0353429 
108 1 -0.089121 0.0288235 0.935178 0 -0.5 -5.39539 0.015 0 0 -0.346714 0.0353429 
1 1 -0.149093 0.432251 0.934429 -0.021394 -0.0706631 -5.55057 0.025 0 0 -1.60516 0.163625 
69 1 -0.020474 0.0490825 0.959084 0 -0.5 -5.35173 0.015 0 0 -0.346714 0.0353429 
35 1 -0.146938 0.222792 0.966188 0 -0.5 -5.33869 0.025 0 0 -1.60516 0.163625 
102 1 -0.11709 0.0288995 0.999114 0 -0.5 -5.27786 0.015 0 0 -0.346714 0.0353429 
139 1 -0.104092 0.086572 0.998945 0 -0.5 -5.27816 0.015 0 0 -0.346714 0.0353429 
144 1 -0.0691235 0.0894741 0.997953 0 -0.5 -5.28002 0.015 0 0 -0.346714 0.0353429 
149 1 -0.0491698 0.140476 1.00215 0.199959 -0.45766 -5.48533 0.015 0 0 -0.346714 0.0353429 
22 1 -0.102489 0.154306 0.993563 0 -0.5 -5.28816 0.025 0 0 -1.60516 0.163625 
14 1 -0.0571303 0.0209755 1.01054 0 -0.5 -5.25658 0.025 0 0 -1.60516 0.163625 
141 1 -0.136875 0.102264 1.02611 0 -0.5 -5.22744 0.015 0 0 -0.346714 0.0353429 
55 1 -0.0959996 0.260399 1.01551 -7.52477e-06 -0.49998 -5.24729 0.015 0 0 -0.346714 0.0353429 
94 1 -0.226212 0.226705 1.05938 -0.356499 -0.190573 -5.23483 0.015 0 0 -0.346714 0.0353429 
87 1 -0.113676 0.223588 1.05693 0 -0.5 -5.16927 0.015 0 0 -0.346714 0.0353429 
21 1 -0.0470047 0.3055 1.04142 0 -0.5 -5.1986 0.025 0 0 -1.60516 0.163625 
107 1 -0.141609 0.0179477 1.08455 0 -0.5 -5.11659 0.015 0 0 -0.346714 0.0353429 
112 1 -0.073338 0.101279 1.11178 0 -0.5 -5.0641 0.015 0 0 -0.346714 0.0353429 
84 1 -0.116406 0.181786 1.10819 0 -0.5 -5.07107 0.015 0 0 -0.346714 0.0353429 
147 1 -0.100309 0.293431 1.10107 0 -0.5 -5.0848 0.015 0 0 -0.346714 0.0353429 
142 1 -0.0724928 0.0427478 1.13427 0 -0.5 -5.02035 0.015 0 0 -0.346714 0.0353429 
6 1 -0.0792193 0.0854357 1.15844 0.101461 -0.428163 -4.97953 0.025 0 0 -1.60516 0.163625 
80 1 -0.102893 0.228893 1.15289 0 -0.5 -4.98386 0.015 0 0 -0.346714 0.0353429 
47 1 -0.140465 0.26545 1.13437 0 -0.5 -5.02016 0.025 0 0 -1.60516 0.163625 
145 1 -0.0934491 0.258113 1.13649 0 -0.5 -5.01604 0.015 0 0 -0.346714 0.0353429 
32 1 -0.167852 0.0243719 1.18509 -0.0613285 -0.540948 -4.91659 0.025 0 0 -1.60516 0.163625 
135 1 -0.140472 0.110893 1.18284 0 -0.5 -4.92451 0.015 0 0 -0.346714 0.0353429 
62 1 -0.0849655 0.318406 1.18256 0 -0.5 -4.9251 0.015 0 0 -0.346714 0.0353429 
138 1 -0.0317395 0.0453156 1.20246 0 -0.5 -4.88527 0.015 0 0 -0.346714 0.0353429 
128 1 -0.145291 0.195677 1.20418 0 -0.5 -4.88183 0.015 0 0 -0.346714 0.0353429 
15 1 -0.0801729 0.187107 1.18973 0.0430154 -0.390763 -4.87233 0.025 0 0 -1.60516 0.163625 
280 1 -0.0516248 0.443439 1.20552 -0.323138 -0.0374805 -4.98718 0.015 0 0 -0.346714 0.0353429 
121 1 -0.0679495 0.300078 1.22484 0 -0.5 -4.84014 0.015 0 0 -0.346714 0.0353429 
129 1 -0.0553418 0.0691994 1.26267 0 -0.5 -4.76284 0.015 0 0 -0.346714 0.0353429 
13 1 -0.146779 0.151821 1.27768 0 -0.5 -4.73184 0.025 0 0 -1.60516 0.163625 
101 1 -0.102489 0.161824 1.2735 0 -0.5 -4.74047 0.015 0 0 -0.346714 0.0353429 
37 1 -0.0716655 0.264665 1.27293 0 -0.5 -4.74165 0.025 0 0 -1.60516 0.163625 
46 1 -0.032303 0.326569 1.27829 0 -0.5 -4.73056 0.025 0 0 -1.60516 0.163625 
52 1 -0.100497 0.0544895 1.29774 0 -0.5 -4.69005 0.015 0 0 -0.346714 0.0353429 
61 1 -0.0231802 0.0389348 1.28929 0 -0.5 -4.70771 0.015 0 0 -0.346714 0.0353429 
5 1 -0.137704 0.0824118 1.3087 0 -0.5 -4.66709 0.025 0 0 -1.60516 0.163625 
79 1 -0.0179342 0.0729843 1.28937 0 -0.5 -4.70751 0.015 0 0 -0.346714 0.0353429 
20 1 -0.124339 0.209888 1.30529 0 -0.5 -4.67426 0.025 0 0 -1.60516 0.163625 
91 1 -0.124131 0.258132 1.28985 0 -0.5 -4.70653 0.015 0 0 -0.346714 0.0353429 
7 1 -0.0712578 0.121449 1.3121 0 -0.5 -4.65993 0.025 0 0 -1.60516 0.163625 
58 1 -0.0969698 0.155891 1.36549 0 -0.5 -4.54614 0.015 0 0 -0.346714 0.0353429 
86 1 -0.142939 0.251059 1.34787 0 -0.5 -4.584 0.015 0 0 -0.346714 0.0353429 
124 1 -0.136447 0.281377 1.36536 0 -0.5 -4.54643 0.015 0 0 -0.346714 0.0353429 
9 1 -0.0320364 0.285159 1.35135 0 -0.5 -4.57655 0.025 0 0 -1.60516 0.163625 
65 1 -0.147981 0.0590967 1.37939 0 -0.5 -4.51602 0.015 0 0 -0.346714 0.0353429 
41 1 -0.107908 0.336758 1.37678 0 -0.5 -4.52171 0.025 0 0 -1.60516 0.163625 
104 1 -0.138444 0.223217 1.41703 0 -0.5 -4.43352 0.015 0 0 -0.346714 0.0353429 
131 1 -0.025873 0.32404 1.40743 0 -0.5 -4.45471 0.015 0 0 -0.346714 0.0353429 
49 1 -0.0613084 0.0697105 1.45545 0 -0.5 -4.34768 0.025 0 0 -1.60516 0.163625 
132 1 -0.0234712 0.0921681 1.4358 0 -0.5 -4.39183 0.015 0 0 -0.346714 0.0353429 
48 1 -0.144727 0.149852 1.43499 0 -0.5 -4.39359 0.025 0 0 -1.60516 0.163625 
53 1 -0.106432 0.19434 1.43711 0 -0.5 -4.38888 0.015 0 0 -0.346714 0.0353429 
16 1 -0.129915 0.293079 1.45854 0 -0.5 -4.34072 0.025 0 0 -1.60516 0.163625 
27 1 -0.0637137 0.319885 1.45918 0 -0.5 -4.33924 0.025 0 0 -1.60516 0.163625 
127 1 -0.0304133 0.115621 1.49124 0 -0.5 -4.26616 0.015 0 0 -0.346714 0.0353429 
82 1 -0.0851821 0.283627 1.46482 0 -0.5 -4.32649 0.015 0 0 -0.346714 0.0353429 
63 1 -0.147823 0.349713 1.47405 0 -0.5 -4.3055 0.015 0 0 -0.346714 0.0353429 
56 1 -0.11556 0.347119 1.49111 0 -0.5 -4.26645 0.015 0 0 -0.346714 0.0353429 
25 1 -0.104447 0.103785 1.50235 0 -0.5 -4.24055 0.025 0 0 -1.60516 0.163625 
42 1 -0.132916 0.196796 1.51645 0 -0.5 -4.20779 0.025 0 0 -1.60516 0.163625 
123 1 -0.11925 0.253492 1.52002 0 -0.5 -4.19945 0.015 0 0 -0.346714 0.0353429 
392 1 -0.0201822 0.0673766 1.54968 0 -0.5 -4.1296 0.015 0 0 -0.346714 0.0353429 
361 1 -0.0655065 0.0951594 1.54728 0 -0.5 -4.13529 0.015 0 0 -0.346714 0.0353429 
391 1 -0.0665259 0.29419 1.5486 0 -0.5 -4.13215 0.015 0 0 -0.346714 0.0353429 
64 1 -0.145219 0.317177 1.53353 0 -0.5 -4.16776 0.015 0 0 -0.346714 0.0353429 
125 1 -0.0960051 0.309127 1.53534 0 -0.5 -4.16355 0.015 0 0 -0.346714 0.0353429 
375 1 -0.132504 0.132213 1.55635 0 -0.5 -4.11371 0.015 0 0 -0.346714 0.0353429 
353 1 -0.0778865 0.14851 1.57468 0 -0.5 -4.06976 0.015 0 0 -0.346714 0.0353429 
432 1 -0.110656 0.208023 1.58632 0 -0.5 -4.04161 0.015 0 0 -0.346714 0.0353429 
423 1 -0.035066 0.312352 1.58475 0 -0.5 -4.04543 0.015 0 0 -0.346714 0.0353429 
370 1 -0.0476722 0.366061 1.57465 0 -0.5 -4.06986 0.015 0 0 -0.346714 0.0353429 
449 1 -0.121601 0.0729702 1.59672 0 -0.5 -4.0163 0.015 0 0 -0.346714 0.0353429 
348 1 -0.046421 0.0847259 1.61302 -0.0150753 -0.514502 -3.97215 0.025 0 0 -1.60516 0.163625 
409 1 -0.1116 0.180279 1.61972 0 -0.5 -3.95969 0.015 0 0 -0.346714 0.0353429 
304 1 -0.147639 0.306299 1.64206 0 -0.5 -3.90397 0.025 0 0 -1.60516 0.163625 
434 1 -0.110177 0.340235 1.61771 0 -0.5 -3.9647 0.015 0 0 -0.346714 0.0353429 
414 1 -0.12165 0.250412 1.67033 0 -0.5 -3.83226 0.015 0 0 -0.346714 0.0353429 
327 1 -0.047146 0.343396 1.66582 0 -0.5 -3.84384 0.025 0 0 -1.60516 0.163625 
307 1 -0.141488 0.112316 1.70821 0 -0.5 -3.73406 0.025 0 0 -1.60516 0.163625 
328 1 -0.101567 0.14336 1.69866 0 -0.5 -3.75908 0.025 0 0 -1.60516 0.163625 
368 1 -0.0426125 0.118103 1.68513 0 -0.5 -3.7942 0.015 0 0 -0.346714 0.0353429 
416 1 -0.148865 0.271752 1.6808 0 -0.5 -3.80538 0.015 0 0 -0.346714 0.0353429 
342 1 -0.0942786 0.294007 1.69966 0 -0.5 -3.75643 0.025 0 0 -1.60516 0.163625 
422 1 -0.0856494 0.334628 1.68363 0 -0.5 -3.79812 0.015 0 0 -0.346714 0.0353429 
441 1 -0.0895132 0.372957 1.70854 0 -0.5 -3.73318 0.015 0 0 -0.346714 0.0353429 
440 1 -0.074831 0.0946332 1.71929 0 -0.5 -3.70483 0.015 0 0 -0.346714 0.0353429 
352 1 -0.144025 0.331939 1.72824 0 -0.5 -3.68109 0.015 0 0 -0.346714 0.0353429 
330 1 -0.125578 0.388028 1.73187 0 -0.5 -3.67138 0.025 0 0 -1.60516 0.163625 
388 1 -0.0545692 0.158686 1.74244 0 -0.5 -3.64303 0.015 0 0 -0.346714 0.0353429 
323 1 -0.131477 0.227813 1.74081 0 -0.5 -3.64744 0.025 0 0 -1.60516 0.163625 
406 1 -0.0920408 0.331666 1.74927 0 -0.5 -3.62459 0.015 0 0 -0.346714 0.0353429 
331 1 -0.138106 0.099831 1.79266 0 -0.5 -3.5052 0.025 0 0 -1.60516 0.163625 
418 1 -0.0554251 0.10494 1.78184 0 -0.5 -3.53531 0.015 0 0 -0.346714 0.0353429 
395 1 -0.110093 0.155872 1.78753 0 -0.5 -3.51952 0.015 0 0 -0.346714 0.0353429 
318 1 -0.126425 0.305158 1.77991 0 -0.5 -3.54071 0.025 0 0 -1.60516 0.163625 
336 1 -0.025747 0.338523 1.78682 0 -0.5 -3.52148 0.025 0 0 -1.60516 0.163625 
313 1 -0.0392615 0.143689 1.80348 0 -0.5 -3.47479 0.025 0 0 -1.60516 0.163625 
315 1 -0.0970947 0.210406 1.82253 0 -0.5 -3.42054 0.025 0 0 -1.60516 0.163625 
407 1 -0.0713596 0.338089 1.82371 0 -0.5 -3.4172 0.015 0 0 -0.346714 0.0353429 
374 1 -0.133879 0.365467 1.80538 0 -0.5 -3.46939 0.015 0 0 -0.346714 0.0353429 
310 1 -0.0919271 0.375993 1.82018 0 -0.5 -3.42731 0.025 0 0 -1.60516 0.163625 
377 1 -0.128279 0.12772 1.85397 0 -0.5 -3.32921 0.015 0 0 -0.346714 0.0353429 
445 1 -0.0938501 0.280643 1.83513 0 -0.5 -3.38424 0.015 0 0 -0.346714 0.0353429 
386 1 -0.118095 0.34911 1.85075 0 -0.5 -3.33862 0.015 0 0 -0.346714 0.0353429 
302 1 -0.0567477 0.125316 1.88203 0 -0.5 -3.24543 0.025 0 0 -1.60516 0.163625 
401 1 -0.0913429 0.15678 1.88044 0 -0.5 -3.25024 0.015 0 0 -0.346714 0.0353429 
314 1 -0.136534 0.193236 1.88921 0 -0.5 -3.22365 0.025 0 0 -1.60516 0.163625 
439 1 -0.132801 0.243897 1.87803 0 -0.5 -3.25749 0.015 0 0 -0.346714 0.0353429 
344 1 -0.147144 0.281445 1.86693 0 -0.5 -3.29075 0.025 0 0 -1.60516 0.163625 
431 1 -0.13363 0.153651 1.91191 0 -0.5 -3.1538 0.015 0 0 -0.346714 0.0353429 
355 1 -0.0483468 0.172759 1.90613 0 -0.5 -3.17176 0.015 0 0 -0.346714 0.0353429 
354 1 -0.0927402 0.341498 1.91065 0 -0.5 -3.15773 0.015 0 0 -0.346714 0.0353429 
413 1 -0.0512121 0.342816 1.90123 0 -0.5 -3.18686 0.015 0 0 -0.346714 0.0353429 
442 1 -0.149932 0.402171 1.90229 0 -0.5 -3.18363 0.015 0 0 -0.346714 0.0353429 
408 1 -0.087028 0.410439 1.90949 0 -0.5 -3.16136 0.015 0 0 -0.346714 0.0353429 
446 1 -0.116317 0.310626 1.92883 0 -0.5 -3.10073 0.015 0 0 -0.346714 0.0353429 
411 1 -0.0485728 0.393056 1.93505 0 -0.5 -3.08101 0.015 0 0 -0.346714 0.0353429 
382 1 -0.109128 0.423506 1.93358 0.026541 -0.439017 -3.19695 0.015 0 0 -0.346714 0.0353429 
324 1 -0.0498553 0.130703 1.97808 0 -0.5 -2.94083 0.025 0 0 -1.60516 0.163625 
350 1 -0.147794 0.163395 1.97054 0 -0.5 -2.96584 0.025 0 0 -1.60516 0.163625 
399 1 -0.074527 0.176048 1.96154 0 -0.5 -2.99547 0.015 0 0 -0.346714 0.0353429 
437 1 -0.0723044 0.207232 1.98386 0 -0.5 -2.9215 0.015 0 0 -0.346714 0.0353429 
335 1 -0.126459 0.224418 1.97037 0 -0.5 -2.96643 0.025 0 0 -1.60516 0.163625 
436 1 -0.0854574 0.230951 1.96103 0 -0.5 -2.99714 0.015 0 0 -0.346714 0.0353429 
341 1 -0.148816 0.344228 1.96313 0 -0.5 -2.99027 0.025 0 0 -1.60516 0.163625 
385 1 -0.0696212 0.353365 1.97558 0 -0.5 -2.94917 0.015 0 0 -0.346714 0.0353429 
389 1 -0.0230912 0.417676 1.96403 0 -0.5 -2.98733 0.015 0 0 -0.346714 0.0353429 
384 1 -0.154998 0.428414 1.97478 -0.135564 -0.440896 -2.98027 0.015 0 0 -0.346714 0.0353429 
427 1 -0.1086 0.432477 1.97024 0.0988458 -0.172977 -3.23418 0.015 0 0 -0.346714 0.0353429 
367 1 -0.106717 0.187831 2.01056 0 -0.5 -2.83037 0.015 0 0 -0.346714 0.0353429 
394 1 -0.145405 0.382684 2.00197 0 -0.5 -2.85999 0.015 0 0 -0.346714 0.0353429 
424 1 -0.123386 0.399165 2.0169 -0.0730123 -0.390635 -2.82162 0.015 0 0 -0.346714 0.0353429 
426 1 -0.0179373 0.412964 2.01026 0 -0.5 -2.83145 0.015 0 0 -0.346714 0.0353429 
358 1 -0.127277 0.154792 2.02125 0 -0.5 -2.79309 0.015 0 0 -0.346714 0.0353429 
376 1 -0.0824761 0.199772 2.03638 0 -0.5 -2.73943 0.015 0 0 -0.346714 0.0353429 
326 1 -0.145564 0.284454 2.02254 0 -0.5 -2.78858 0.025 0 0 -1.60516 0.163625 
319 1 -0.0687817 0.434025 2.01926 0 -0.5 -2.80005 0.025 0 0 -1.60516 0.163625 
433 1 -0.118613 0.140665 2.05448 0 -0.5 -2.6738 0.015 0 0 -0.346714 0.0353429 
420 1 -0.037203 0.148826 2.05711 0 -0.5 -2.66419 0.015 0 0 -0.346714 0.0353429 
402 1 -0.101682 0.184287 2.05963 0 -0.5 -2.65487 0.015 0 0 -0.346714 0.0353429 
363 1 -0.0911777 0.261327 2.07593 0 -0.5 -2.59395 0.015 0 0 -0.346714 0.0353429 
360 1 -0.116599 0.285221 2.0748 0 -0.5 -2.59826 0.015 0 0 -0.346714 0.0353429 
306 1 -0.116739 0.362034 2.0588 0 -0.5 -2.65791 0.025 0 0 -1.60516 0.163625 
397 1 -0.0557758 0.373618 2.07856 0 -0.5 -2.58394 0.015 0 0 -0.346714 0.0353429 
371 1 -0.0449321 0.412104 2.07362 0 -0.5 -2.60268 0.015 0 0 -0.346714 0.0353429 
412 1 -0.0937388 0.432584 2.06292 0 -0.5 -2.6427 0.015 0 0 -0.346714 0.0353429 
322 1 -0.131733 0.171564 2.09712 0 -0.5 -2.51252 0.025 0 0 -1.60516 0.163625 
373 1 -0.136858 0.318184 2.10328 0 -0.5 -2.48839 0.015 0 0 -0.346714 0.0353429 
396 1 -0.0958984 0.33866 2.09854 0 -0.5 -2.50703 0.015 0 0 -0.346714 0.0353429 
369 1 -0.138958 0.376563 2.10516 0 -0.5 -2.48094 0.015 0 0 -0.346714 0.0353429 
381 1 -0.0827007 0.407114 2.09484 0 -0.5 -2.52145 0.015 0 0 -0.346714 0.0353429 
383 1 -0.0262689 0.394803 2.10589 0 -0.5 -2.47809 0.015 0 0 -0.346714 0.0353429 
308 1 -0.0762361 0.189473 2.12047 -0.0168546 -0.516386 -2.41689 0.025 0 0 -1.60516 0.163625 
415 1 -0.127182 0.22213 2.13503 0 -0.5 -2.35988 0.015 0 0 -0.346714 0.0353429 
398 1 -0.0350446 0.23221 2.11004 0.308366 -0.162474 -2.51639 0.015 0 0 -0.346714 0.0353429 
343 1 -0.140775 0.280899 2.13967 0 -0.5 -2.34055 0.025 0 0 -1.60516 0.163625 
438 1 -0.0987495 0.270333 2.12152 0 -0.5 -2.4154 0.015 0 0 -0.346714 0.0353429 
356 1 -0.111476 0.313564 2.12615 0 -0.5 -2.39647 0.015 0 0 -0.346714 0.0353429 
443 1 -0.0906469 0.368658 2.1337 0 -0.5 -2.36537 0.015 0 0 -0.346714 0.0353429 
340 1 -0.149237 0.441237 2.12582 0 -0.5 -2.39784 0.025 0 0 -1.60516 0.163625 
390 1 -0.0988461 0.18259 2.15928 0 -0.5 -2.25678 0.015 0 0 -0.346714 0.0353429 
349 1 -0.116564 0.400594 2.14225 0 -0.5 -2.32967 0.025 0 0 -1.60516 0.163625 
351 1 -0.0409452 0.399112 2.14527 0 -0.5 -2.31691 0.015 0 0 -0.346714 0.0353429 
419 1 -0.111609 0.173519 2.19253 0 -0.5 -2.10737 0.015 0 0 -0.346714 0.0353429 
448 1 -0.0329565 0.19157 2.17339 0 -0.5 -2.19458 0.015 0 0 -0.346714 0.0353429 
347 1 -0.0548177 0.22889 2.17703 0 -0.5 -2.1783 0.025 0 0 -1.60516 0.163625 
362 1 -0.0154426 0.223609 2.19074 0 -0.5 -2.11561 0.015 0 0 -0.346714 0.0353429 
421 1 -0.0930175 0.253542 2.20126 0 -0.5 -2.06636 0.015 0 0 -0.346714 0.0353429 
378 1 -0.121409 0.277198 2.18126 0 -0.5 -2.15917 0.015 0 0 -0.346714 0.0353429 
312 1 -0.134707 0.336718 2.18196 0 -0.5 -2.15603 0.025 0 0 -1.60516 0.163625 
359 1 -0.107325 0.381399 2.18658 0 -0.5 -2.13484 0.015 0 0 -0.346714 0.0353429 
303 1 -0.0551599 0.400479 2.19101 0 -0.5 -2.11443 0.025 0 0 -1.60516 0.163625 
334 1 -0.103439 0.436448 2.19754 0 -0.5 -2.08392 0.025 0 0 -1.60516 0.163625 
417 1 -0.0160313 0.436054 2.18195 0 -0.5 -2.15603 0.015 0 0 -0.346714 0.0353429 
346 1 -0.150068 0.458455 2.18681 -0.0151472 -0.325165 -2.21446 0.025 0 0 -1.60516 0.163625 
320 1 -0.0648735 0.208579 2.2324 -0 0 -2 0.025 0 0 0 0.163625 
325 1 -0.117824 0.294875 2.22362 -0 0 -2 0.025 0 0 0 0.163625 
365 1 -0.146783 0.422189 2.20656 0.0322739 -0.84426 -1.87918 0.015 0 0 -0.346714 0.0353429 
447 1 -0.122284 0.473304 2.23295 -0 0 -2 0.015 0 0 0 0.0353429 
309 1 -0.144284 0.205271 2.24206 -0 0 -2 0.025 0 0 0 0.163625 
379 1 -0.0327871 0.203074 2.26003 -0 0 -2 0.015 0 0 0 0.0353429 
430 1 -0.123083 0.250988 2.24862 -0 0 -2 0.015 0 0 0 0.0353429 
403 1 -0.0833248 0.256507 2.25057 -0 0 -2 0.015 0 0 0 0.0353429 
372 1 -0.0702168 0.391047 2.23578 -0 0 -2 0.015 0 0 0 0.0353429 
387 1 -0.0901615 0.367162 2.24418 -0 0 -2 0.015 0 0 0 0.0353429 
393 1 -0.015571 0.425619 2.25766 -0 0 -2 0.015 0 0 0 0.0353429 
338 1 -0.0583644 0.458496 2.24325 -0 0 -2 0.025 0 0 0 0.163625 
316 1 -0.0983119 0.181261 2.28241 -0 0 -2 0.025 0 0 0 0.163625 
364 1 -0.0453235 0.209912 2.29059 -0 0 -2 0.015 0 0 0 0.0353429 
321 1 -0.126579 0.250186 2.29126 -0 0 -2 0.025 0 0 0 0.163625 
357 1 -0.0584785 0.247404 2.27825 -0 0 -2 0.015 0 0 0 0.0353429 
333 1 -0.0978849 0.312107 2.29192 -0 0 -2 0.025 0 0 0 0.163625 
380 1 -0.127355 0.355901 2.28731 -0 0 -2 0.015 0 0 0 0.0353429 
301 1 -0.0884221 0.421264 2.28336 -0 0 -2 0.025 0 0 0 0.163625 
428 1 -0.0387226 0.430102 2.28662 -0 0 -2 0.015 0 0 0 0.0353429 
329 1 -0.123479 0.457221 2.28085 -0 0 -2 0.025 0 0 0 0.163625 
450 1 -0.0322061 0.474788 2.28745 -0 0 -2 0.015 0 0 0 0.0353429 
410 1 -0.145474 0.298701 2.29435 -0 0 -2 0.015 0 0 0 0.0353429 
337 1 -0.142368 0.393123 2.30188 -0 0 -2 0.025 0 0 0 0.163625 
425 1 -0.074083 0.175677 2.33945 -0 0 -2 0.015 0 0 0 0.0353429 
311 1 -0.0354402 0.189328 2.34716 -0 0 -2 0.025 0 0 0 0.163625 
345 1 -0.128178 0.236209 2.35286 -0 0 -2 0.025 0 0 0 0.163625 
332 1 -0.0814262 0.231721 2.32918 -0 0 -2 0.025 0 0 0 0.163625 
400 1 -0.135353 0.274705 2.33182 -0 0 -2 0.015 0 0 0 0.0353429 
317 1 -0.129905 0.313645 2.34465 -0 0 -2 0.025 0 0 0 0.163625 
366 1 -0.144217 0.391047 2.34291 -0 0 -2 0.015 0 0 0 0.0353429 
339 1 -0.0802774 0.437645 2.33907 -0 0 -2 0.025 0 0 0 0.163625 
405 1 -0.038992 0.42438 2.34704 -0 0 -2 0.015 0 0 0 0.0353429 
305 1 -0.0452536 0.474362 2.33945 -0 0 -2 0.025 0 0 0 0.163625 
404 1 -0.119976 0.192749 2.35539 -0 0 -2 0.015 0 0 0 0.0353429 
435 1 -0.0960728 0.272801 2.35572 -0 0 -2 0.015 0 0 0 0.0353429 
444 1 -0.0159467 0.465681 2.3676 -0 0 -2 0.015 0 0 0 0.0353429 
289 1 0.102387 0.223013 -0.333521 0.0203384 -0.134604 -7.46983 0.015 0 0 -0.346714 0.0353429 
284 1 0.0647756 -0.0921945 -0.166903 -0.0310215 -0.613333 -7.16455 0.015 0 0 -0.346714 0.0353429 
199 1 0.0894141 0.102684 -0.131261 -0.00278668 -0.321029 -7.14149 0.025 0 0 -1.60516 0.163625 
203 1 0.0667127 -0.0807672 -0.111026 0 -0.5 -7.04533 0.015 0 0 -0.346714 0.0353429 
206 1 0.109024 -0.057119 -0.119627 0.057048 -0.582454 -7.08901 0.015 0 0 -0.346714 0.0353429 
214 1 0.144386 0.105733 -0.0979466 0 -0.5 -7.02709 0.015 0 0 -0.346714 0.0353429 
213 1 0.0350777 0.15857 -0.110828 0 -0.5 -7.04504 0.015 0 0 -0.346714 0.0353429 
272 1 0.0168276 0.193548 -0.117297 0 -0.5 -7.05406 0.015 0 0 -0.346714 0.0353429 
241 1 0.0849537 0.189018 -0.0916898 0 -0.5 -7.01835 0.015 0 0 -0.346714 0.0353429 
259 1 0.149131 -0.0401735 -0.0760632 0 -0.5 -6.99648 0.015 0 0 -0.346714 0.0353429 
263 1 0.025742 -0.0195063 -0.0597287 0 -0.5 -6.97352 0.015 0 0 -0.346714 0.0353429 
237 1 0.141138 -0.0114281 -0.0806232 0.0724848 -0.475593 -6.99401 0.015 0 0 -0.346714 0.0353429 
171 1 0.0968186 0.121751 -0.0786759 0.0549768 -0.472606 -7.07032 0.025 0 0 -1.60516 0.163625 
226 1 0.110692 0.167304 -0.0837589 0 -0.5 -7.00727 0.015 0 0 -0.346714 0.0353429 
116 1 0.0768314 0.112508 -0.0386532 0.110827 -0.413989 -6.69382 0.015 0 0 -0.346714 0.0353429 
220 1 0.00654273 -0.0734291 -0.0197956 -0.0669262 -0.554313 -6.91131 0.015 0 0 -0.346714 0.0353429 
177 1 0.17785 0.108811 -0.0231894 0.112606 -0.398162 -6.92632 0.025 0 0 -1.60516 0.163625 
184 1 0.11251 0.221841 0.0262696 0 -0.5 -6.85149 0.025 0 0 -1.60516 0.163625 
249 1 0.0491797 0.159421 0.0574749 0 -0.5 -6.80665 0.015 0 0 -0.346714 0.0353429 
290 1 0.157485 0.183768 0.0401643 0.0439512 -0.299137 -6.79996 0.015 0 0 -0.346714 0.0353429 
166 1 0.0609489 0.223253 0.0345633 0 -0.5 -6.83962 0.025 0 0 -1.60516 0.163625 
270 1 0.0946744 0.151669 0.0753482 0 -0.5 -6.78085 0.015 0 0 -0.346714 0.0353429 
216 1 0.0981916 -0.0631855 0.116131 0.0481324 -0.610657 -6.70369 0.015 0 0 -0.346714 0.0353429 
222 1 0.123753 -0.0383386 0.10225 0 -0.5 -6.74181 0.015 0 0 -0.346714 0.0353429 
294 1 0.128315 0.184152 0.0965886 0 -0.5 -6.75005 0.015 0 0 -0.346714 0.0353429 
170 1 0.208393 0.167176 0.129954 0.161731 -0.381986 -6.71339 0.025 0 0 -1.60516 0.163625 
231 1 0.0350342 0.18162 0.150219 0 -0.5 -6.67167 0.015 0 0 -0.346714 0.0353429 
180 1 0.0350636 -0.0234504 0.155265 -0.021889 -0.504465 -6.6591 0.025 0 0 -1.60516 0.163625 
253 1 0.123075 0.0690692 0.157878 0 -0.5 -6.66039 0.015 0 0 -0.346714 0.0353429 
169 1 0.0892107 0.190668 0.180274 0 -0.5 -6.62733 0.025 0 0 -1.60516 0.163625 
209 1 0.0969746 -0.0427524 0.219003 0 -0.5 -6.56974 0.015 0 0 -0.346714 0.0353429 
296 1 0.146983 0.073001 0.267348 0 -0.5 -6.49715 0.015 0 0 -0.346714 0.0353429 
278 1 0.113612 0.0919651 0.264878 0 -0.5 -6.50088 0.015 0 0 -0.346714 0.0353429 
257 1 0.139837 0.204641 0.265536 0 -0.5 -6.4999 0.015 0 0 -0.346714 0.0353429 
235 1 0.134937 -0.0396153 0.335856 0 -0.5 -6.39287 0.015 0 0 -0.346714 0.0353429 
168 1 0.0261487 -0.00589626 0.319593 0 -0.5 -6.41779 0.025 0 0 -1.60516 0.163625 
269 1 0.141487 -0.0104957 0.315735 0 -0.5 -6.42367 0.015 0 0 -0.346714 0.0353429 
217 1 0.133752 0.0396912 0.333813 0 -0.5 -6.39601 0.015 0 0 -0.346714 0.0353429 
182 1 0.114565 0.149779 0.328696 0 -0.5 -6.40386 0.025 0 0 -1.60516 0.163625 
162 1 0.0478022 0.194457 0.308861 0 -0.5 -6.43417 0.025 0 0 -1.60516 0.163625 
176 1 0.0399362 0.246472 0.333932 0 -0.5 -6.39581 0.025 0 0 -1.60516 0.163625 
286 1 0.147755 0.23887 0.332404 0 -0.5 -6.39817 0.015 0 0 -0.346714 0.0353429 
185 1 0.0936576 0.0386661 0.345126 0 -0.5 -6.37864 0.025 0 0 -1.60516 0.163625 
153 1 0.0895866 -0.0452402 0.378655 0 -0.5 -6.32685 0.025 0 0 -1.60516 0.163625 
251 1 0.126174 0.107559 0.39608 0 -0.5 -6.29977 0.015 0 0 -0.346714 0.0353429 
211 1 0.0694768 0.0129716 0.40521 0 -0.5 -6.28555 0.015 0 0 -0.346714 0.0353429 
291 1 0.140432 0.183523 0.42533 0 -0.5 -6.25406 0.015 0 0 -0.346714 0.0353429 
159 1 0.087245 0.242208 0.42715 0 -0.5 -6.25121 0.025 0 0 -1.60516 0.163625 
161 1 0.135356 0.0588496 0.456983 0 -0.5 -6.20422 0.025 0 0 -1.60516 0.163625 
300 1 0.149285 0.23624 0.444621 0 -0.5 -6.22374 0.015 0 0 -0.346714 0.0353429 
204 1 0.134881 0.00124814 0.4584 0 -0.5 -6.20197 0.015 0 0 -0.346714 0.0353429 
230 1 0.118982 0.0993718 0.480982 0 -0.5 -6.16616 0.015 0 0 -0.346714 0.0353429 
228 1 0.0279693 0.208593 0.46789 0 -0.5 -6.18696 0.015 0 0 -0.346714 0.0353429 
175 1 0.0941494 -0.00594121 0.507645 0 -0.5 -6.12358 0.025 0 0 -1.60516 0.163625 
192 1 0.134392 0.157049 0.540694 0 -0.5 -6.07041 0.025 0 0 -1.60516 0.163625 
285 1 0.0870748 0.194259 0.542997 0 -0.5 -6.06669 0.015 0 0 -0.346714 0.0353429 
256 1 0.0868225 0.226057 0.53546 0 -0.5 -6.07885 0.015 0 0 -0.346714 0.0353429 
246 1 0.0494565 0.26101 0.544029 0 -0.5 -6.06502 0.015 0 0 -0.346714 0.0353429 
240 1 0.0956629 0.25788 0.5473 0 -0.5 -6.05972 0.015 0 0 -0.346714 0.0353429 
250 1 0.138716 0.240193 0.531811 0 -0.5 -6.08474 0.015 0 0 -0.346714 0.0353429 
299 1 0.0153001 0.0175412 0.564951 0 -0.5 -6.03108 0.015 0 0 -0.346714 0.0353429 
293 1 0.0548164 0.0331452 0.553967 0 -0.5 -6.04893 0.015 0 0 -0.346714 0.0353429 
275 1 0.0211058 0.240962 0.562533 0 -0.5 -6.035 0.015 0 0 -0.346714 0.0353429 
202 1 0.126943 -0.00788113 0.605434 0 -0.5 -5.96486 0.015 0 0 -0.346714 0.0353429 
200 1 0.112803 0.050149 0.587692 0 -0.5 -5.99399 0.025 0 0 -1.60516 0.163625 
255 1 0.0340792 0.208865 0.596355 0 -0.5 -5.97977 0.015 0 0 -0.346714 0.0353429 
252 1 0.131256 0.217424 0.596361 0 -0.5 -5.97977 0.015 0 0 -0.346714 0.0353429 
245 1 0.0868358 0.0177147 0.620553 0 -0.5 -5.93994 0.015 0 0 -0.346714 0.0353429 
189 1 0.0509787 -0.00848804 0.654265 0 -0.5 -5.88402 0.025 0 0 -1.60516 0.163625 
247 1 0.0532922 0.0455654 0.645062 0 -0.5 -5.89933 0.015 0 0 -0.346714 0.0353429 
287 1 0.130384 -0.0176498 0.695147 0 -0.5 -5.81545 0.015 0 0 -0.346714 0.0353429 