ITEM: TIMESTEP
4800
ITEM: NUMBER OF ATOMS
300
ITEM: BOX BOUNDS mm mm mm
-1 1
-1 1
-0.05 2.85
ITEM: ATOMS id type x y z vx vy vz radius fx fy fz mass 
68 1 -0.0997213 0.221271 2.1295 0 -0.5 -2.38274 0.015 0 0 -0.346714 0.0353429 
137 1 -0.0856372 0.262231 2.13559 -0.00924354 -0.479856 -2.35988 0.015 0 0 -0.346714 0.0353429 
45 1 -0.0943793 0.172238 2.14171 0 -0.5 -2.33192 0.025 0 0 -1.60516 0.163625 
119 1 -0.0370509 0.161189 2.15415 0 -0.5 -2.27905 0.015 0 0 -0.346714 0.0353429 
122 1 -0.0726247 0.234287 2.14162 0.00811842 -0.517403 -2.3303 0.015 0 0 -0.346714 0.0353429 
75 1 -0.0493142 0.211672 2.16135 0 -0.5 -2.24775 0.015 0 0 -0.346714 0.0353429 
89 1 -0.129145 0.240308 2.16401 0 -0.5 -2.23618 0.015 0 0 -0.346714 0.0353429 
43 1 -0.116198 0.323785 2.15064 0 -0.5 -2.29405 0.025 0 0 -1.60516 0.163625 
33 1 -0.129286 0.412605 2.13911 0 -0.5 -2.34281 0.025 0 0 -1.60516 0.163625 
78 1 -0.0422369 0.419955 2.15739 0 -0.5 -2.26502 0.015 0 0 -0.346714 0.0353429 
111 1 -0.0487783 0.4561 2.15089 0 -0.5 -2.29298 0.015 0 0 -0.346714 0.0353429 
116 1 -0.0789839 0.261228 2.19011 0 -0.5 -2.11855 0.015 0 0 -0.346714 0.0353429 
98 1 -0.147127 0.312442 2.19805 0 -0.5 -2.08147 0.015 0 0 -0.346714 0.0353429 
59 1 -0.0865612 0.368868 2.16983 0 -0.5 -2.21047 0.015 0 0 -0.346714 0.0353429 
151 1 -0.0686397 0.394527 2.19783 0 -0.5 -2.08255 0.015 0 0 -0.346714 0.0353429 
92 1 -0.131017 0.463327 2.17595 0 -0.5 -2.1832 0.015 0 0 -0.346714 0.0353429 
8 1 -0.104188 0.179463 2.20457 0 -0.5 -2.05047 0.025 0 0 -1.60516 0.163625 
117 1 -0.0596227 0.187911 2.22745 -0 0 -2 0.015 0 0 0 0.0353429 
26 1 -0.116264 0.238558 2.20974 0 -0.5 -2.02565 0.025 0 0 -1.60516 0.163625 
100 1 -0.0681017 0.246701 2.2199 -0 0 -2 0.015 0 0 0 0.0353429 
140 1 -0.125739 0.288791 2.21807 -0 0 -2 0.015 0 0 0 0.0353429 
3 1 -0.141317 0.377388 2.20755 0 -0.5 -2.03625 0.025 0 0 -1.60516 0.163625 
72 1 -0.105673 0.414796 2.21262 0 -0.5 -2.01162 0.015 0 0 -0.346714 0.0353429 
118 1 -0.0372647 0.447981 2.22182 -0 0 -2 0.015 0 0 0 0.0353429 
40 1 -0.104474 0.465328 2.21849 -0 0 -2 0.025 0 0 0 0.163625 
51 1 -0.148629 0.207973 2.2343 -0 0 -2 0.025 0 0 0 0.163625 
60 1 -0.0770515 0.189563 2.25646 -0 0 -2 0.015 0 0 0 0.0353429 
11 1 -0.104535 0.339633 2.25713 -0 0 -2 0.025 0 0 0 0.163625 
50 1 -0.130982 0.413855 2.25701 -0 0 -2 0.025 0 0 0 0.163625 
90 1 -0.146535 0.459152 2.24907 -0 0 -2 0.015 0 0 0 0.0353429 
44 1 -0.125916 0.175687 2.27864 -0 0 -2 0.025 0 0 0 0.163625 
36 1 -0.103411 0.220492 2.28628 -0 0 -2 0.025 0 0 0 0.163625 
54 1 -0.127903 0.263915 2.28972 -0 0 -2 0.015 0 0 0 0.0353429 
105 1 -0.0921083 0.265449 2.28586 -0 0 -2 0.015 0 0 0 0.0353429 
148 1 -0.109236 0.277779 2.26406 -0 0 -2 0.015 0 0 0 0.0353429 
74 1 -0.0790012 0.398328 2.26928 -0 0 -2 0.015 0 0 0 0.0353429 
29 1 -0.0788351 0.436897 2.28414 -0 0 -2 0.025 0 0 0 0.163625 
76 1 -0.0202065 0.4251 2.27489 -0 0 -2 0.015 0 0 0 0.0353429 
146 1 -0.109965 0.179156 2.31805 -0 0 -2 0.015 0 0 0 0.0353429 
73 1 -0.0639552 0.194042 2.30992 -0 0 -2 0.015 0 0 0 0.0353429 
114 1 -0.0718896 0.247337 2.29904 -0 0 -2 0.015 0 0 0 0.0353429 
2 1 -0.110349 0.340826 2.31199 -0 0 -2 0.025 0 0 0 0.163625 
12 1 -0.0363281 0.448716 2.3175 -0 0 -2 0.025 0 0 0 0.163625 
113 1 -0.118506 0.466048 2.3076 -0 0 -2 0.015 0 0 0 0.0353429 
99 1 -0.146283 0.240102 2.33268 -0 0 -2 0.015 0 0 0 0.0353429 
66 1 -0.0281121 0.223413 2.34865 -0 0 -2 0.015 0 0 0 0.0353429 
83 1 -0.108229 0.266466 2.34573 -0 0 -2 0.015 0 0 0 0.0353429 
19 1 -0.0715757 0.246217 2.34714 -0 0 -2 0.025 0 0 0 0.163625 
57 1 -0.120673 0.292821 2.32796 -0 0 -2 0.015 0 0 0 0.0353429 
34 1 -0.138562 0.406366 2.34359 -0 0 -2 0.025 0 0 0 0.163625 
88 1 -0.0666498 0.404684 2.32396 -0 0 -2 0.015 0 0 0 0.0353429 
81 1 -0.051385 0.406229 2.35008 -0 0 -2 0.015 0 0 0 0.0353429 
67 1 -0.0183057 0.176509 2.35852 -0 0 -2 0.015 0 0 0 0.0353429 
24 1 -0.138394 0.202357 2.36339 -0 0 -2 0.025 0 0 0 0.163625 
103 1 -0.135939 0.242982 2.37797 -0 0 -2 0.015 0 0 0 0.0353429 
133 1 -0.127566 0.317989 2.36683 -0 0 -2 0.015 0 0 0 0.0353429 
10 1 -0.0985872 0.348255 2.36269 -0 0 -2 0.025 0 0 0 0.163625 
95 1 -0.10482 0.405012 2.3682 -0 0 -2 0.015 0 0 0 0.0353429 
71 1 -0.145263 0.448003 2.3518 -0 0 -2 0.015 0 0 0 0.0353429 
143 1 -0.11631 0.460077 2.38143 -0 0 -2 0.015 0 0 0 0.0353429 
39 1 -0.0696793 0.4547 2.36826 -0 0 -2 0.025 0 0 0 0.163625 
28 1 -0.0685748 0.19761 2.39285 -0 0 -2 0.025 0 0 0 0.163625 
96 1 -0.131998 0.220986 2.40739 -0 0 -2 0.015 0 0 0 0.0353429 
70 1 -0.107191 0.223969 2.38282 -0 0 -2 0.015 0 0 0 0.0353429 
97 1 -0.0338223 0.225584 2.38925 -0 0 -2 0.015 0 0 0 0.0353429 
115 1 -0.076478 0.260831 2.38942 -0 0 -2 0.015 0 0 0 0.0353429 
126 1 -0.11117 0.322121 2.39319 -0 0 -2 0.015 0 0 0 0.0353429 
85 1 -0.13789 0.382175 2.39037 -0 0 -2 0.015 0 0 0 0.0353429 
134 1 -0.137197 0.420922 2.39678 -0 0 -2 0.015 0 0 0 0.0353429 
77 1 -0.0297287 0.448599 2.3996 -0 0 -2 0.015 0 0 0 0.0353429 
120 1 -0.148569 0.468911 2.40042 -0 0 -2 0.015 0 0 0 0.0353429 
150 1 -0.100106 0.224977 2.43993 -0 0 -2 0.015 0 0 0 0.0353429 
38 1 -0.121616 0.260048 2.41557 -0 0 -2 0.025 0 0 0 0.163625 
130 1 -0.0642546 0.250466 2.43091 -0 0 -2 0.015 0 0 0 0.0353429 
23 1 -0.134189 0.392634 2.43055 -0 0 -2 0.025 0 0 0 0.163625 
18 1 -0.106015 0.455331 2.44042 -0 0 -2 0.025 0 0 0 0.163625 
4 1 -0.0330873 0.468582 2.44012 -0 0 -2 0.025 0 0 0 0.163625 
110 1 -0.0868918 0.176082 2.45635 -0 0 -2 0.015 0 0 0 0.0353429 
31 1 -0.140814 0.189187 2.44577 -0 0 -2 0.025 0 0 0 0.163625 
93 1 -0.0244706 0.186478 2.46173 -0 0 -2 0.015 0 0 0 0.0353429 
17 1 -0.134634 0.299667 2.46445 -0 0 -2 0.025 0 0 0 0.163625 
136 1 -0.0832352 0.392978 2.46313 -0 0 -2 0.015 0 0 0 0.0353429 
30 1 -0.0481876 0.420042 2.46627 -0 0 -2 0.025 0 0 0 0.163625 
109 1 -0.0676248 0.46737 2.46584 -0 0 -2 0.015 0 0 0 0.0353429 
108 1 -0.089121 0.201884 2.48278 -0 0 -2 0.015 0 0 0 0.0353429 
69 1 -0.020474 0.219918 2.49167 -0 0 -2 0.015 0 0 0 0.0353429 
35 1 -0.146938 0.392962 2.49432 -0 0 -2 0.025 0 0 0 0.163625 
106 1 -0.102883 0.446824 2.49043 -0 0 -2 0.015 0 0 0 0.0353429 
102 1 -0.11709 0.195969 2.50674 -0 0 -2 0.015 0 0 0 0.0353429 
14 1 -0.0571303 0.18696 2.51107 -0 0 -2 0.025 0 0 0 0.163625 
141 1 -0.136875 0.266764 2.51701 -0 0 -2 0.015 0 0 0 0.0353429 
139 1 -0.104092 0.253657 2.50667 -0 0 -2 0.015 0 0 0 0.0353429 
144 1 -0.0691235 0.256654 2.5063 -0 0 -2 0.015 0 0 0 0.0353429 
22 1 -0.102489 0.321901 2.50463 -0 0 -2 0.025 0 0 0 0.163625 
87 1 -0.113676 0.385123 2.52887 -0 0 -2 0.015 0 0 0 0.0353429 
55 1 -0.0959971 0.425903 2.51297 -0 0 -2 0.015 0 0 0 0.0353429 
1 1 -0.142366 0.459394 2.52637 -0 0 -2 0.025 0 0 0 0.163625 
21 1 -0.0470047 0.46853 2.52288 -0 0 -2 0.025 0 0 0 0.163625 
107 1 -0.141609 0.176798 2.53962 -0 0 -2 0.015 0 0 0 0.0353429 
142 1 -0.0724928 0.196693 2.55923 -0 0 -2 0.015 0 0 0 0.0353429 
149 1 -0.107316 0.253342 2.5589 -0 0 -2 0.015 0 0 0 0.0353429 
112 1 -0.073338 0.257454 2.55031 -0 0 -2 0.015 0 0 0 0.0353429 
94 1 -0.127866 0.29863 2.54584 -0 0 -2 0.015 0 0 0 0.0353429 
84 1 -0.116406 0.338316 2.5489 -0 0 -2 0.015 0 0 0 0.0353429 
47 1 -0.140465 0.419385 2.55927 -0 0 -2 0.025 0 0 0 0.163625 
145 1 -0.0934491 0.411838 2.56012 -0 0 -2 0.015 0 0 0 0.0353429 
147 1 -0.100309 0.450661 2.54609 -0 0 -2 0.015 0 0 0 0.0353429 
32 1 -0.149633 0.185622 2.57866 -0 0 -2 0.025 0 0 0 0.163625 
138 1 -0.0317395 0.192376 2.58676 -0 0 -2 0.015 0 0 0 0.0353429 
6 1 -0.109435 0.215083 2.57084 -0 0 -2 0.025 0 0 0 0.163625 
135 1 -0.140472 0.259953 2.57876 -0 0 -2 0.015 0 0 0 0.0353429 
15 1 -0.0916636 0.308509 2.57268 -0 0 -2 0.025 0 0 0 0.163625 
128 1 -0.145291 0.342562 2.58747 -0 0 -2 0.015 0 0 0 0.0353429 
80 1 -0.102893 0.380978 2.56668 -0 0 -2 0.015 0 0 0 0.0353429 
62 1 -0.0849655 0.467496 2.57866 -0 0 -2 0.015 0 0 0 0.0353429 
61 1 -0.0231802 0.176945 2.62297 -0 0 -2 0.015 0 0 0 0.0353429 
129 1 -0.0553418 0.210019 2.61172 -0 0 -2 0.015 0 0 0 0.0353429 
79 1 -0.0179342 0.210984 2.623 -0 0 -2 0.015 0 0 0 0.0353429 
13 1 -0.146779 0.291061 2.61806 -0 0 -2 0.025 0 0 0 0.163625 
101 1 -0.102489 0.301504 2.61629 -0 0 -2 0.015 0 0 0 0.0353429 
91 1 -0.124131 0.396082 2.62321 -0 0 -2 0.015 0 0 0 0.0353429 
37 1 -0.0716655 0.404405 2.61605 -0 0 -2 0.025 0 0 0 0.163625 
121 1 -0.0679495 0.444838 2.59597 -0 0 -2 0.015 0 0 0 0.0353429 
46 1 -0.032303 0.465744 2.61831 -0 0 -2 0.025 0 0 0 0.163625 
52 1 -0.100497 0.1916 2.62656 -0 0 -2 0.015 0 0 0 0.0353429 
5 1 -0.137704 0.218352 2.63125 -0 0 -2 0.025 0 0 0 0.163625 
7 1 -0.0712578 0.257024 2.63271 -0 0 -2 0.025 0 0 0 0.163625 
20 1 -0.124339 0.346193 2.6298 -0 0 -2 0.025 0 0 0 0.163625 
86 1 -0.142939 0.382764 2.64819 -0 0 -2 0.015 0 0 0 0.0353429 
9 1 -0.0320364 0.416484 2.64971 -0 0 -2 0.025 0 0 0 0.163625 
65 1 -0.147981 0.187337 2.66204 -0 0 -2 0.015 0 0 0 0.0353429 
58 1 -0.0969698 0.285666 2.65591 -0 0 -2 0.015 0 0 0 0.0353429 
104 1 -0.138444 0.347252 2.67886 -0 0 -2 0.015 0 0 0 0.0353429 
124 1 -0.136447 0.411167 2.65585 -0 0 -2 0.015 0 0 0 0.0353429 
131 1 -0.025873 0.449155 2.67454 -0 0 -2 0.015 0 0 0 0.0353429 
41 1 -0.107908 0.465288 2.66089 -0 0 -2 0.025 0 0 0 0.163625 
49 1 -0.0613084 0.18937 2.69636 -0 0 -2 0.025 0 0 0 0.163625 
127 1 -0.0304133 0.231126 2.71299 -0 0 -2 0.015 0 0 0 0.0353429 
132 1 -0.0234712 0.214078 2.68738 -0 0 -2 0.015 0 0 0 0.0353429 
48 1 -0.144727 0.271852 2.68701 -0 0 -2 0.025 0 0 0 0.163625 
53 1 -0.106432 0.3161 2.68798 -0 0 -2 0.015 0 0 0 0.0353429 
16 1 -0.129915 0.412384 2.6978 -0 0 -2 0.025 0 0 0 0.163625 
82 1 -0.0851821 0.402207 2.70069 -0 0 -2 0.015 0 0 0 0.0353429 
27 1 -0.0637137 0.439115 2.69809 -0 0 -2 0.025 0 0 0 0.163625 
63 1 -0.147823 0.467223 2.70496 -0 0 -2 0.015 0 0 0 0.0353429 
56 1 -0.11556 0.462639 2.71292 -0 0 -2 0.015 0 0 0 0.0353429 
25 1 -0.104447 0.217985 2.71821 -0 0 -2 0.025 0 0 0 0.163625 
42 1 -0.132916 0.309326 2.72488 -0 0 -2 0.025 0 0 0 0.163625 
123 1 -0.11925 0.365597 2.72658 -0 0 -2 0.015 0 0 0 0.0353429 
125 1 -0.0960051 0.419402 2.73392 -0 0 -2 0.015 0 0 0 0.0353429 
64 1 -0.145219 0.427667 2.73304 -0 0 -2 0.015 0 0 0 0.0353429 
284 1 0.0765149 0.190696 2.13306 0 -0.5 -2.36802 0.015 0 0 -0.346714 0.0353429 
289 1 0.0926246 0.287623 2.12189 0.0203384 -0.134604 -2.76103 0.015 0 0 -0.346714 0.0353429 
203 1 0.0667127 0.159233 2.14062 0 -0.5 -2.33653 0.015 0 0 -0.346714 0.0353429 
220 1 0.0386673 0.192641 2.16752 -0.0669262 -0.554313 -2.20251 0.015 0 0 -0.346714 0.0353429 
259 1 0.149131 0.199826 2.15213 0 -0.5 -2.28768 0.015 0 0 -0.346714 0.0353429 
263 1 0.025742 0.220494 2.15745 0 -0.5 -2.26472 0.015 0 0 -0.346714 0.0353429 
206 1 0.0687318 0.218387 2.15685 0.299819 -0.223644 -2.35396 0.015 0 0 -0.346714 0.0353429 
237 1 0.117019 0.220451 2.14883 0 -0.5 -2.3018 0.015 0 0 -0.346714 0.0353429 
214 1 0.144386 0.345733 2.14494 0 -0.5 -2.31829 0.015 0 0 -0.346714 0.0353429 
171 1 0.0955264 0.361107 2.15184 0 -0.5 -2.28895 0.025 0 0 -1.60516 0.163625 
213 1 0.0350777 0.39857 2.14068 0 -0.5 -2.33624 0.015 0 0 -0.346714 0.0353429 
226 1 0.110692 0.407304 2.14962 0 -0.5 -2.29847 0.015 0 0 -0.346714 0.0353429 
272 1 0.0168276 0.433548 2.13854 0 -0.5 -2.34526 0.015 0 0 -0.346714 0.0353429 
241 1 0.0849537 0.429018 2.14701 0 -0.5 -2.30955 0.015 0 0 -0.346714 0.0353429 
216 1 0.0811858 0.231173 2.20004 -0.0532053 -0.631329 -1.9326 0.015 0 0 -0.346714 0.0353429 
199 1 0.0911713 0.258484 2.16706 0.0758303 -0.272516 -2.44603 0.025 0 0 -1.60516 0.163625 
177 1 0.123683 0.296884 2.16998 0 -0.5 -2.20979 0.025 0 0 -1.60516 0.163625 
290 1 0.140367 0.345539 2.1805 0 -0.5 -2.1626 0.015 0 0 -0.346714 0.0353429 
249 1 0.0491797 0.399421 2.19456 0 -0.5 -2.09785 0.015 0 0 -0.346714 0.0353429 
270 1 0.0946744 0.391669 2.20005 0 -0.5 -2.07205 0.015 0 0 -0.346714 0.0353429 
166 1 0.0609489 0.463253 2.18747 0 -0.5 -2.13082 0.025 0 0 -1.60516 0.163625 
184 1 0.11251 0.461841 2.18487 0 -0.5 -2.14269 0.025 0 0 -1.60516 0.163625 
222 1 0.123753 0.201661 2.20821 0 -0.5 -2.03301 0.015 0 0 -0.346714 0.0353429 
180 1 0.0442532 0.216579 2.2224 -0 0 -2 0.025 0 0 0 0.163625 
282 1 0.10026 0.326414 2.23007 -0 0 -2 0.015 0 0 0 0.0353429 
253 1 0.123075 0.306604 2.22487 -0 0 -2 0.015 0 0 0 0.0353429 
170 1 0.131887 0.34958 2.22206 -0 0 -2 0.025 0 0 0 0.163625 
231 1 0.0350342 0.41973 2.22258 -0 0 -2 0.015 0 0 0 0.0353429 
294 1 0.128315 0.424152 2.2065 0 -0.5 -2.04125 0.015 0 0 -0.346714 0.0353429 
209 1 0.0969746 0.190163 2.24335 -0 0 -2 0.015 0 0 0 0.0353429 
296 1 0.146983 0.302216 2.25815 -0 0 -2 0.015 0 0 0 0.0353429 
278 1 0.113612 0.32137 2.25739 -0 0 -2 0.015 0 0 0 0.0353429 
169 1 0.0892107 0.426518 2.23162 -0 0 -2 0.025 0 0 0 0.163625 
257 1 0.139837 0.433996 2.2576 -0 0 -2 0.015 0 0 0 0.0353429 
235 1 0.134937 0.184285 2.27941 -0 0 -2 0.015 0 0 0 0.0353429 
168 1 0.0261487 0.219274 2.27434 -0 0 -2 0.025 0 0 0 0.163625 
269 1 0.141487 0.214974 2.27313 -0 0 -2 0.015 0 0 0 0.0353429 
185 1 0.0936576 0.261841 2.28232 -0 0 -2 0.025 0 0 0 0.163625 
217 1 0.133752 0.263751 2.27877 -0 0 -2 0.015 0 0 0 0.0353429 
182 1 0.114565 0.374239 2.27717 -0 0 -2 0.025 0 0 0 0.163625 
162 1 0.0478022 0.420462 2.27099 -0 0 -2 0.025 0 0 0 0.163625 
176 1 0.0399362 0.470522 2.2788 -0 0 -2 0.025 0 0 0 0.163625 
286 1 0.147755 0.46304 2.27833 -0 0 -2 0.015 0 0 0 0.0353429 
153 1 0.0895866 0.175295 2.29287 -0 0 -2 0.025 0 0 0 0.163625 
211 1 0.0694768 0.231402 2.30129 -0 0 -2 0.015 0 0 0 0.0353429 
204 1 0.134881 0.215418 2.31832 -0 0 -2 0.015 0 0 0 0.0353429 
161 1 0.135356 0.273135 2.31787 -0 0 -2 0.025 0 0 0 0.163625 
251 1 0.126174 0.326714 2.29839 -0 0 -2 0.015 0 0 0 0.0353429 
291 1 0.140432 0.400348 2.30771 -0 0 -2 0.015 0 0 0 0.0353429 
300 1 0.149285 0.45152 2.3139 -0 0 -2 0.015 0 0 0 0.0353429 
159 1 0.087245 0.458888 2.30829 -0 0 -2 0.025 0 0 0 0.163625 
175 1 0.0941494 0.204234 2.33431 -0 0 -2 0.025 0 0 0 0.163625 
293 1 0.0548164 0.239515 2.34953 -0 0 -2 0.015 0 0 0 0.0353429 
230 1 0.118982 0.311717 2.32563 -0 0 -2 0.015 0 0 0 0.0353429 
192 1 0.134392 0.364514 2.34515 -0 0 -2 0.025 0 0 0 0.163625 
228 1 0.0279693 0.421998 2.3214 -0 0 -2 0.015 0 0 0 0.0353429 
285 1 0.0870748 0.401534 2.34591 -0 0 -2 0.015 0 0 0 0.0353429 
256 1 0.0868225 0.433952 2.34342 -0 0 -2 0.015 0 0 0 0.0353429 
250 1 0.138716 0.448388 2.34222 -0 0 -2 0.015 0 0 0 0.0353429 
246 1 0.0494565 0.4682 2.34625 -0 0 -2 0.015 0 0 0 0.0353429 
240 1 0.0956629 0.4648 2.34733 -0 0 -2 0.015 0 0 0 0.0353429 
202 1 0.126943 0.194204 2.36666 -0 0 -2 0.015 0 0 0 0.0353429 
299 1 0.0153001 0.223001 2.35317 -0 0 -2 0.015 0 0 0 0.0353429 
245 1 0.0868358 0.21853 2.37174 -0 0 -2 0.015 0 0 0 0.0353429 
247 1 0.0532922 0.24431 2.38002 -0 0 -2 0.015 0 0 0 0.0353429 
200 1 0.112803 0.253719 2.36074 -0 0 -2 0.025 0 0 0 0.163625 
255 1 0.0340792 0.41171 2.36362 -0 0 -2 0.015 0 0 0 0.0353429 
252 1 0.131256 0.420269 2.36363 -0 0 -2 0.015 0 0 0 0.0353429 
275 1 0.0211058 0.446622 2.35236 -0 0 -2 0.015 0 0 0 0.0353429 
287 1 0.130384 0.17682 2.39713 -0 0 -2 0.015 0 0 0 0.0353429 
189 1 0.0509787 0.189477 2.38316 -0 0 -2 0.025 0 0 0 0.163625 
288 1 0.0326968 0.220656 2.40217 -0 0 -2 0.015 0 0 0 0.0353429 
154 1 0.116388 0.333622 2.389 -0 0 -2 0.025 0 0 0 0.163625 
295 1 0.103955 0.389653 2.4037 -0 0 -2 0.015 0 0 0 0.0353429 
156 1 0.0411221 0.437707 2.40494 -0 0 -2 0.025 0 0 0 0.163625 
190 1 0.11779 0.446077 2.39362 -0 0 -2 0.025 0 0 0 0.163625 
210 1 0.0872868 0.178716 2.41768 -0 0 -2 0.015 0 0 0 0.0353429 
260 1 0.0198171 0.221855 2.43607 -0 0 -2 0.015 0 0 0 0.0353429 
181 1 0.070397 0.216714 2.42154 -0 0 -2 0.025 0 0 0 0.163625 
165 1 0.148355 0.269976 2.41587 -0 0 -2 0.025 0 0 0 0.163625 
152 1 0.089118 0.280769 2.43252 -0 0 -2 0.025 0 0 0 0.163625 
279 1 0.11959 0.339787 2.43716 -0 0 -2 0.015 0 0 0 0.0353429 
262 1 0.0888361 0.372678 2.44032 -0 0 -2 0.015 0 0 0 0.0353429 
234 1 0.0945525 0.423196 2.43771 -0 0 -2 0.015 0 0 0 0.0353429 
208 1 0.0680799 0.458746 2.44103 -0 0 -2 0.015 0 0 0 0.0353429 
233 1 0.0406697 0.190327 2.44287 -0 0 -2 0.015 0 0 0 0.0353429 
212 1 0.0737637 0.196713 2.4721 -0 0 -2 0.015 0 0 0 0.0353429 
236 1 0.111584 0.210187 2.47211 -0 0 -2 0.015 0 0 0 0.0353429 
207 1 0.128901 0.387724 2.44966 -0 0 -2 0.015 0 0 0 0.0353429 
194 1 0.131621 0.447751 2.44816 -0 0 -2 0.025 0 0 0 0.163625 
223 1 0.0343911 0.467936 2.45755 -0 0 -2 0.015 0 0 0 0.0353429 
178 1 0.0370442 0.176531 2.48948 -0 0 -2 0.025 0 0 0 0.163625 
224 1 0.132465 0.234727 2.48954 -0 0 -2 0.015 0 0 0 0.0353429 
221 1 0.0987988 0.270466 2.49423 -0 0 -2 0.015 0 0 0 0.0353429 
242 1 0.131055 0.286068 2.48237 -0 0 -2 0.015 0 0 0 0.0353429 
191 1 0.0609008 0.410844 2.47404 -0 0 -2 0.025 0 0 0 0.163625 
258 1 0.135516 0.183364 2.50948 -0 0 -2 0.015 0 0 0 0.0353429 
187 1 0.0681893 0.23526 2.51752 -0 0 -2 0.025 0 0 0 0.163625 
232 1 0.13999 0.251489 2.53133 -0 0 -2 0.015 0 0 0 0.0353429 
179 1 0.136485 0.334335 2.50533 -0 0 -2 0.025 0 0 0 0.163625 
248 1 0.0851139 0.371469 2.51256 -0 0 -2 0.015 0 0 0 0.0353429 
174 1 0.030822 0.423363 2.53181 -0 0 -2 0.025 0 0 0 0.163625 
157 1 0.115469 0.419287 2.5195 -0 0 -2 0.025 0 0 0 0.163625 
264 1 0.0357265 0.464363 2.51367 -0 0 -2 0.015 0 0 0 0.0353429 
277 1 0.0674794 0.455945 2.52045 -0 0 -2 0.015 0 0 0 0.0353429 
205 1 0.0941484 0.176621 2.53585 -0 0 -2 0.015 0 0 0 0.0353429 
201 1 0.0267726 0.186335 2.55543 -0 0 -2 0.025 0 0 0 0.163625 
276 1 0.0937292 0.21136 2.54947 -0 0 -2 0.015 0 0 0 0.0353429 
227 1 0.137271 0.1866 2.54132 -0 0 -2 0.015 0 0 0 0.0353429 
158 1 0.0866624 0.276126 2.55474 -0 0 -2 0.025 0 0 0 0.163625 
254 1 0.137401 0.322401 2.56036 -0 0 -2 0.015 0 0 0 0.0353429 
172 1 0.128434 0.362446 2.55047 -0 0 -2 0.025 0 0 0 0.163625 
229 1 0.102013 0.176876 2.589 -0 0 -2 0.015 0 0 0 0.0353429 
265 1 0.115746 0.204637 2.57281 -0 0 -2 0.015 0 0 0 0.0353429 
225 1 0.0772421 0.22912 2.57096 -0 0 -2 0.015 0 0 0 0.0353429 
271 1 0.0988759 0.311205 2.57776 -0 0 -2 0.015 0 0 0 0.0353429 
274 1 0.108637 0.339608 2.5771 -0 0 -2 0.015 0 0 0 0.0353429 
183 1 0.0737852 0.400871 2.58143 -0 0 -2 0.025 0 0 0 0.163625 
283 1 0.102888 0.442022 2.56745 -0 0 -2 0.015 0 0 0 0.0353429 
173 1 0.0548933 0.463589 2.57084 -0 0 -2 0.025 0 0 0 0.163625 
196 1 0.0520917 0.20732 2.59878 -0 0 -2 0.025 0 0 0 0.163625 
163 1 0.107222 0.236676 2.60443 -0 0 -2 0.025 0 0 0 0.163625 
155 1 0.141768 0.302505 2.60515 -0 0 -2 0.025 0 0 0 0.163625 
268 1 0.140569 0.388665 2.61404 -0 0 -2 0.015 0 0 0 0.0353429 
281 1 0.0312292 0.432852 2.59463 -0 0 -2 0.015 0 0 0 0.0353429 
188 1 0.140755 0.442261 2.60041 -0 0 -2 0.025 0 0 0 0.163625 
280 1 0.0367193 0.456786 2.61577 -0 0 -2 0.015 0 0 0 0.0353429 
267 1 0.101401 0.464343 2.61338 -0 0 -2 0.015 0 0 0 0.0353429 
218 1 0.0164873 0.217058 2.64037 -0 0 -2 0.015 0 0 0 0.0353429 
298 1 0.114914 0.351461 2.63245 -0 0 -2 0.015 0 0 0 0.0353429 
197 1 0.0581936 0.42558 2.63216 -0 0 -2 0.025 0 0 0 0.163625 
273 1 0.0779061 0.461373 2.63384 -0 0 -2 0.015 0 0 0 0.0353429 
164 1 0.0527853 0.200711 2.67668 -0 0 -2 0.025 0 0 0 0.163625 
160 1 0.118533 0.219824 2.67038 -0 0 -2 0.025 0 0 0 0.163625 
215 1 0.0767991 0.264474 2.67977 -0 0 -2 0.015 0 0 0 0.0353429 
297 1 0.141884 0.27502 2.67754 -0 0 -2 0.015 0 0 0 0.0353429 
238 1 0.105443 0.363301 2.66041 -0 0 -2 0.015 0 0 0 0.0353429 
195 1 0.147227 0.360394 2.66652 -0 0 -2 0.025 0 0 0 0.163625 
292 1 0.0287531 0.422464 2.67968 -0 0 -2 0.015 0 0 0 0.0353429 
167 1 0.118751 0.462916 2.66472 -0 0 -2 0.025 0 0 0 0.163625 
261 1 0.0852607 0.230216 2.6949 -0 0 -2 0.015 0 0 0 0.0353429 
186 1 0.10183 0.291927 2.71208 -0 0 -2 0.025 0 0 0 0.163625 
243 1 0.113126 0.365244 2.6975 -0 0 -2 0.015 0 0 0 0.0353429 
193 1 0.102412 0.413293 2.69252 -0 0 -2 0.025 0 0 0 0.163625 
198 1 0.0617553 0.466461 2.69262 -0 0 -2 0.025 0 0 0 0.163625 
219 1 0.0278687 0.201322 2.72255 -0 0 -2 0.015 0 0 0 0.0353429 
239 1 0.126558 0.237343 2.71931 -0 0 -2 0.015 0 0 0 0.0353429 
266 1 0.0917737 0.36017 2.72911 -0 0 -2 0.015 0 0 0 0.0353429 
244 1 0.0497502 0.427977 2.71571 -0 0 -2 0.015 0 0 0 0.0353429 
