ITEM: TIMESTEP
75200
ITEM: NUMBER OF ATOMS
900
ITEM: BOX BOUNDS mm mm mm
-1 1
-1 1
-2.24891 2.85
ITEM: ATOMS id type x y z vx vy vz radius fx fy fz mass 
68 1 -0.0997213 -0.130729 -1.97894 0 -0.5 -9.28898 0.015 0 0 -0.346714 0.0353429 
137 1 -0.0921446 -0.0755875 -1.95676 -0.00924354 -0.479856 -9.26612 0.015 0 0 -0.346714 0.0353429 
45 1 -0.0943793 -0.179762 -1.93096 0 -0.5 -9.23816 0.025 0 0 -1.60516 0.163625 
122 1 -0.0669093 -0.129965 -1.9299 0.00811842 -0.517403 -9.23654 0.015 0 0 -0.346714 0.0353429 
33 1 -0.129286 0.0606047 -1.94122 0 -0.5 -9.24905 0.025 0 0 -1.60516 0.163625 
43 1 -0.116198 -0.0282146 -1.89537 0 -0.5 -9.20029 0.025 0 0 -1.60516 0.163625 
111 1 -0.0487783 0.1041 -1.89436 0 -0.5 -9.19922 0.015 0 0 -0.346714 0.0353429 
119 1 -0.0370509 -0.190811 -1.8813 0 -0.5 -9.18529 0.015 0 0 -0.346714 0.0353429 
78 1 -0.0422369 0.0679551 -1.86818 0 -0.5 -9.17126 0.015 0 0 -0.346714 0.0353429 
75 1 -0.0493142 -0.140328 -1.85206 0 -0.5 -9.15399 0.015 0 0 -0.346714 0.0353429 
89 1 -0.129145 -0.111692 -1.84126 0 -0.5 -9.14242 0.015 0 0 -0.346714 0.0353429 
220 1 -0.00844873 -0.197595 -1.81404 -0.0669262 -0.554313 -9.10875 0.015 0 0 -0.346714 0.0353429 
59 1 -0.0865612 0.0168678 -1.81734 0 -0.5 -9.11671 0.015 0 0 -0.346714 0.0353429 
92 1 -0.131017 0.111327 -1.79202 0 -0.5 -9.08944 0.015 0 0 -0.346714 0.0353429 
26 1 -0.0104662 -0.00172164 -1.73678 0.14857 -0.341553 -9.05849 0.025 0 0 -1.60516 0.163625 
98 1 -0.147127 -0.0395582 -1.6983 0 -0.5 -8.98771 0.015 0 0 -0.346714 0.0353429 
151 1 -0.0686397 0.042527 -1.69928 0 -0.5 -8.98879 0.015 0 0 -0.346714 0.0353429 
8 1 -0.104188 -0.172537 -1.66996 0 -0.5 -8.95671 0.025 0 0 -1.60516 0.163625 
3 1 -0.141317 0.0253879 -1.65696 0 -0.5 -8.94249 0.025 0 0 -1.60516 0.163625 
72 1 -0.105673 0.062796 -1.63456 0 -0.5 -8.91786 0.015 0 0 -0.346714 0.0353429 
100 1 -0.0681017 -0.104079 -1.60224 0 -0.5 -8.88225 0.015 0 0 -0.346714 0.0353429 
140 1 -0.125739 -0.0624436 -1.61033 0 -0.5 -8.89118 0.015 0 0 -0.346714 0.0353429 
40 1 -0.104474 0.114198 -1.60847 0 -0.5 -8.88912 0.025 0 0 -1.60516 0.163625 
118 1 -0.0372647 0.0976811 -1.59372 0 -0.5 -8.87284 0.015 0 0 -0.346714 0.0353429 
117 1 -0.0596227 -0.160979 -1.56874 0 -0.5 -8.84517 0.015 0 0 -0.346714 0.0353429 
148 1 -0.224137 0.00704811 -1.56141 -0.171679 -0.397353 -8.89451 0.015 0 0 -0.346714 0.0353429 
51 1 -0.167021 -0.152955 -1.52581 -0.0265052 -0.519812 -8.79327 0.025 0 0 -1.60516 0.163625 
282 1 -0.0812796 -0.142333 -1.51596 -0.2609 -0.673185 -8.77309 0.015 0 0 -0.346714 0.0353429 
90 1 -0.146535 0.115667 -1.4737 0 -0.5 -8.73913 0.015 0 0 -0.346714 0.0353429 
60 1 -0.0770515 -0.152072 -1.44144 0 -0.5 -8.70283 0.015 0 0 -0.346714 0.0353429 
11 1 -0.0921061 0.0210037 -1.45614 0.022917 -0.457889 -8.73199 0.025 0 0 -1.60516 0.163625 
50 1 -0.130982 0.0723549 -1.43909 0 -0.5 -8.70018 0.025 0 0 -1.60516 0.163625 
74 1 -0.0790012 0.0598934 -1.38593 0 -0.5 -8.64005 0.015 0 0 -0.346714 0.0353429 
105 1 -0.296077 0.0416853 -1.37091 -0.321192 -0.368687 -8.6157 0.015 0 0 -0.346714 0.0353429 
76 1 -0.0202065 0.08807 -1.3617 0 -0.5 -8.61248 0.015 0 0 -0.346714 0.0353429 
44 1 -0.125916 -0.160403 -1.34553 0 -0.5 -8.59404 0.025 0 0 -1.60516 0.163625 
29 1 -0.0788351 0.102182 -1.32193 0 -0.5 -8.56706 0.025 0 0 -1.60516 0.163625 
36 1 -0.103411 -0.113688 -1.31278 0 -0.5 -8.55656 0.025 0 0 -1.60516 0.163625 
54 1 -0.188718 -0.0882828 -1.27619 -0.0956439 -0.529683 -8.50526 0.015 0 0 -0.346714 0.0353429 
114 1 -0.0721553 -0.0834372 -1.25864 -0.00040144 -0.499666 -8.49435 0.015 0 0 -0.346714 0.0353429 
73 1 -0.0639552 -0.134233 -1.21239 0 -0.5 -8.44071 0.015 0 0 -0.346714 0.0353429 
2 1 -0.110349 0.0130712 -1.20363 0 -0.5 -8.4305 0.025 0 0 -1.60516 0.163625 
113 1 -0.118506 0.137198 -1.22212 0 -0.5 -8.45199 0.015 0 0 -0.346714 0.0353429 
146 1 -0.109965 -0.147084 -1.17813 0 -0.5 -8.40078 0.015 0 0 -0.346714 0.0353429 
12 1 -0.0363281 0.122336 -1.18047 0 -0.5 -8.40353 0.025 0 0 -1.60516 0.163625 
88 1 -0.0666498 0.0799185 -1.15338 0 -0.5 -8.37184 0.015 0 0 -0.346714 0.0353429 
99 1 -0.146283 -0.0824829 -1.11697 0 -0.5 -8.32907 0.015 0 0 -0.346714 0.0353429 
57 1 -0.120673 -0.0309395 -1.13658 0 -0.5 -8.35212 0.015 0 0 -0.346714 0.0353429 
10 1 -0.0553459 0.112989 -1.11661 0.0635655 -0.375939 -8.38576 0.025 0 0 -1.60516 0.163625 
66 1 -0.0281121 -0.0951772 -1.05074 0 -0.5 -8.25069 0.015 0 0 -0.346714 0.0353429 
19 1 -0.0715757 -0.0727476 -1.05694 0 -0.5 -8.25804 0.025 0 0 -1.60516 0.163625 
83 1 -0.108229 -0.052854 -1.06279 0 -0.5 -8.26501 0.015 0 0 -0.346714 0.0353429 
34 1 -0.138562 0.086511 -1.07164 0 -0.5 -8.27551 0.025 0 0 -1.60516 0.163625 
81 1 -0.0227257 0.110951 -1.02776 0.07636 -0.438847 -8.1982 0.015 0 0 -0.346714 0.0353429 
71 1 -0.145263 0.130198 -1.03779 0 -0.5 -8.23529 0.015 0 0 -0.346714 0.0353429 
67 1 -0.0183057 -0.139611 -1.01011 0 -0.5 -8.20223 0.015 0 0 -0.346714 0.0353429 
24 1 -0.138394 -0.112548 -0.990201 0 -0.5 -8.17839 0.025 0 0 -1.60516 0.163625 
133 1 -0.127566 0.00394436 -0.976147 0 -0.5 -8.16151 0.015 0 0 -0.346714 0.0353429 
95 1 -0.10482 0.0913122 -0.970525 0 -0.5 -8.15474 0.015 0 0 -0.346714 0.0353429 
39 1 -0.0696793 0.14101 -0.970349 0 -0.5 -8.15455 0.025 0 0 -1.60516 0.163625 
103 1 -0.135939 -0.0682777 -0.93084 0 -0.5 -8.10687 0.015 0 0 -0.346714 0.0353429 
70 1 -0.107191 -0.0860756 -0.911177 0 -0.5 -8.08303 0.015 0 0 -0.346714 0.0353429 
143 1 -0.11631 0.149682 -0.916829 0 -0.5 -8.0899 0.015 0 0 -0.346714 0.0353429 
28 1 -0.0685748 -0.10993 -0.870793 0 -0.5 -8.03389 0.025 0 0 -1.60516 0.163625 
97 1 -0.0338223 -0.082856 -0.885271 0 -0.5 -8.05154 0.015 0 0 -0.346714 0.0353429 
115 1 -0.076478 -0.0475689 -0.884622 0 -0.5 -8.05076 0.015 0 0 -0.346714 0.0353429 
85 1 -0.13789 0.0740152 -0.880763 0 -0.5 -8.04605 0.015 0 0 -0.346714 0.0353429 
134 1 -0.137197 0.114367 -0.854996 0 -0.5 -8.01456 0.015 0 0 -0.346714 0.0353429 
77 1 -0.0297287 0.142749 -0.843707 0 -0.5 -8.00073 0.015 0 0 -0.346714 0.0353429 
120 1 -0.148569 0.163261 -0.840492 0 -0.5 -7.9968 0.015 0 0 -0.346714 0.0353429 
96 1 -0.131998 -0.0829186 -0.812647 0 -0.5 -7.96257 0.015 0 0 -0.346714 0.0353429 
126 1 -0.128915 -0.00956187 -0.830824 -0.0288748 -0.539424 -7.96939 0.015 0 0 -0.346714 0.0353429 
38 1 -0.121616 -0.0418121 -0.780162 0 -0.5 -7.92244 0.025 0 0 -1.60516 0.163625 
130 1 -0.0642546 -0.0475593 -0.719688 0 -0.5 -7.8472 0.015 0 0 -0.346714 0.0353429 
23 1 -0.134189 0.094519 -0.721096 0 -0.5 -7.84897 0.025 0 0 -1.60516 0.163625 
31 1 -0.140814 -0.105123 -0.661654 0 -0.5 -7.77431 0.025 0 0 -1.60516 0.163625 
150 1 -0.100106 -0.0707931 -0.684394 0 -0.5 -7.80296 0.015 0 0 -0.346714 0.0353429 
18 1 -0.106015 0.159686 -0.682452 0 -0.5 -7.80051 0.025 0 0 -1.60516 0.163625 
4 1 -0.0330873 0.172857 -0.683687 0 -0.5 -7.80208 0.025 0 0 -1.60516 0.163625 
106 1 -0.158648 0.314194 -0.673483 -0.0998962 -0.230395 -7.88305 0.015 0 0 -0.346714 0.0353429 
110 1 -0.0868918 -0.115583 -0.620663 0 -0.5 -7.72242 0.015 0 0 -0.346714 0.0353429 
93 1 -0.0244706 -0.103842 -0.599928 0 -0.5 -7.69603 0.015 0 0 -0.346714 0.0353429 
17 1 -0.134634 0.0100265 -0.58947 0 -0.5 -7.68269 0.025 0 0 -1.60516 0.163625 
136 1 -0.0832352 0.103008 -0.594539 0 -0.5 -7.68916 0.015 0 0 -0.346714 0.0353429 
30 1 -0.0481876 0.130857 -0.582479 0 -0.5 -7.67376 0.025 0 0 -1.60516 0.163625 
109 1 -0.0676248 0.17808 -0.584102 0 -0.5 -7.67582 0.015 0 0 -0.346714 0.0353429 
1 1 -0.153885 0.416422 -0.555013 -0.021394 -0.0706631 -7.74801 0.025 0 0 -1.60516 0.163625 
108 1 -0.089121 -0.0831765 -0.519502 0 -0.5 -7.59283 0.015 0 0 -0.346714 0.0353429 
69 1 -0.020474 -0.0629175 -0.485818 0 -0.5 -7.54917 0.015 0 0 -0.346714 0.0353429 
35 1 -0.146938 0.110792 -0.475791 0 -0.5 -7.53613 0.025 0 0 -1.60516 0.163625 
149 1 -0.00437902 0.0379598 -0.472674 0.199959 -0.45766 -7.68277 0.015 0 0 -0.346714 0.0353429 
102 1 -0.11709 -0.0831005 -0.429241 0 -0.5 -7.4753 0.015 0 0 -0.346714 0.0353429 
139 1 -0.104092 -0.025428 -0.429476 0 -0.5 -7.4756 0.015 0 0 -0.346714 0.0353429 
144 1 -0.0691235 -0.0225259 -0.430885 0 -0.5 -7.47746 0.015 0 0 -0.346714 0.0353429 
22 1 -0.102489 0.0423065 -0.437099 0 -0.5 -7.4856 0.025 0 0 -1.60516 0.163625 
14 1 -0.0571303 -0.0910245 -0.41305 0 -0.5 -7.45402 0.025 0 0 -1.60516 0.163625 
141 1 -0.136875 -0.00973577 -0.390954 0 -0.5 -7.42488 0.015 0 0 -0.346714 0.0353429 
55 1 -0.0960013 0.148404 -0.405992 -7.52477e-06 -0.49998 -7.44473 0.015 0 0 -0.346714 0.0353429 
94 1 -0.306068 0.184017 -0.359331 -0.356499 -0.190573 -7.43227 0.015 0 0 -0.346714 0.0353429 
21 1 -0.0470047 0.1935 -0.369177 0 -0.5 -7.39604 0.025 0 0 -1.60516 0.163625 
87 1 -0.113676 0.111588 -0.347097 0 -0.5 -7.36671 0.015 0 0 -0.346714 0.0353429 
107 1 -0.141609 -0.0940523 -0.307675 0 -0.5 -7.31403 0.015 0 0 -0.346714 0.0353429 
112 1 -0.073338 -0.0107213 -0.268693 0 -0.5 -7.26154 0.015 0 0 -0.346714 0.0353429 
84 1 -0.116406 0.0697863 -0.273844 0 -0.5 -7.26851 0.015 0 0 -0.346714 0.0353429 
147 1 -0.100309 0.181431 -0.284037 0 -0.5 -7.28224 0.015 0 0 -0.346714 0.0353429 
142 1 -0.0724928 -0.0692522 -0.236401 0 -0.5 -7.21779 0.015 0 0 -0.346714 0.0353429 
145 1 -0.0934491 0.146113 -0.23322 0 -0.5 -7.21348 0.015 0 0 -0.346714 0.0353429 
47 1 -0.140465 0.15345 -0.236258 0 -0.5 -7.2176 0.025 0 0 -1.60516 0.163625 
6 1 -0.0564919 -0.0104728 -0.203091 0.101461 -0.428163 -7.17697 0.025 0 0 -1.60516 0.163625 
80 1 -0.102893 0.116893 -0.209611 0 -0.5 -7.1813 0.015 0 0 -0.346714 0.0353429 
32 1 -0.181589 -0.0968006 -0.162338 -0.0613285 -0.540948 -7.11403 0.025 0 0 -1.60516 0.163625 
135 1 -0.140472 -0.00110744 -0.166361 0 -0.5 -7.12195 0.015 0 0 -0.346714 0.0353429 
15 1 -0.0705375 0.0995765 -0.147786 0.0430154 -0.390763 -7.06977 0.025 0 0 -1.60516 0.163625 
62 1 -0.0849655 0.206406 -0.166774 0 -0.5 -7.12254 0.015 0 0 -0.346714 0.0353429 
280 1 -0.124008 0.435043 -0.157718 -0.323138 -0.0374805 -7.18462 0.015 0 0 -0.346714 0.0353429 
138 1 -0.0317395 -0.0666844 -0.137953 0 -0.5 -7.08271 0.015 0 0 -0.346714 0.0353429 
128 1 -0.145291 0.0836768 -0.135465 0 -0.5 -7.07927 0.015 0 0 -0.346714 0.0353429 
121 1 -0.0679495 0.188078 -0.105463 0 -0.5 -7.03758 0.015 0 0 -0.346714 0.0353429 
129 1 -0.0553418 -0.0428006 -0.050322 0 -0.5 -6.96028 0.015 0 0 -0.346714 0.0353429 
13 1 -0.146779 0.0398211 -0.0283613 0 -0.5 -6.92928 0.025 0 0 -1.60516 0.163625 
101 1 -0.102489 0.0498245 -0.0344755 0 -0.5 -6.93791 0.015 0 0 -0.346714 0.0353429 
37 1 -0.0716655 0.152665 -0.0353083 0 -0.5 -6.93909 0.025 0 0 -1.60516 0.163625 
46 1 -0.032303 0.214569 -0.0274659 0 -0.5 -6.928 0.025 0 0 -1.60516 0.163625 
61 1 -0.0231802 -0.0730652 -0.0113517 0 -0.5 -6.90515 0.015 0 0 -0.346714 0.0353429 
52 1 -0.100497 -0.0575105 0.00105183 0 -0.5 -6.88749 0.015 0 0 -0.346714 0.0353429 
79 1 -0.0179342 -0.0390157 -0.0112212 0 -0.5 -6.90495 0.015 0 0 -0.346714 0.0353429 
91 1 -0.124131 0.146132 -0.010529 0 -0.5 -6.90397 0.015 0 0 -0.346714 0.0353429 
5 1 -0.137704 -0.0295882 0.0171533 0 -0.5 -6.86453 0.025 0 0 -1.60516 0.163625 
7 1 -0.0712578 0.00944944 0.022161 0 -0.5 -6.85737 0.025 0 0 -1.60516 0.163625 
20 1 -0.124339 0.0978877 0.0121442 0 -0.5 -6.8717 0.025 0 0 -1.60516 0.163625 
86 1 -0.142939 0.139059 0.0749368 0 -0.5 -6.78144 0.015 0 0 -0.346714 0.0353429 
9 1 -0.0320364 0.173159 0.080095 0 -0.5 -6.77399 0.025 0 0 -1.60516 0.163625 
65 1 -0.147981 -0.0529033 0.121693 0 -0.5 -6.71346 0.015 0 0 -0.346714 0.0353429 
58 1 -0.0969698 0.0438907 0.101039 0 -0.5 -6.74358 0.015 0 0 -0.346714 0.0353429 
124 1 -0.136447 0.169377 0.100845 0 -0.5 -6.74387 0.015 0 0 -0.346714 0.0353429 
41 1 -0.107908 0.224758 0.117807 0 -0.5 -6.71915 0.025 0 0 -1.60516 0.163625 
104 1 -0.138444 0.111217 0.177808 0 -0.5 -6.63096 0.015 0 0 -0.346714 0.0353429 
131 1 -0.025873 0.21204 0.16346 0 -0.5 -6.65215 0.015 0 0 -0.346714 0.0353429 
132 1 -0.0234712 -0.0198319 0.205913 0 -0.5 -6.58927 0.015 0 0 -0.346714 0.0353429 
48 1 -0.144727 0.037852 0.204715 0 -0.5 -6.59103 0.025 0 0 -1.60516 0.163625 
53 1 -0.106432 0.0823403 0.20789 0 -0.5 -6.58632 0.015 0 0 -0.346714 0.0353429 
49 1 -0.0613084 -0.0422895 0.235453 0 -0.5 -6.54512 0.025 0 0 -1.60516 0.163625 
82 1 -0.0851821 0.171627 0.249578 0 -0.5 -6.52393 0.015 0 0 -0.346714 0.0353429 
16 1 -0.129915 0.181079 0.240109 0 -0.5 -6.53816 0.025 0 0 -1.60516 0.163625 
27 1 -0.0637137 0.207885 0.24108 0 -0.5 -6.53668 0.025 0 0 -1.60516 0.163625 
63 1 -0.147823 0.237713 0.263503 0 -0.5 -6.50294 0.015 0 0 -0.346714 0.0353429 
25 1 -0.104447 -0.00821468 0.30635 0 -0.5 -6.43799 0.025 0 0 -1.60516 0.163625 
127 1 -0.0304133 0.00362125 0.289509 0 -0.5 -6.4636 0.015 0 0 -0.346714 0.0353429 
56 1 -0.11556 0.235119 0.289307 0 -0.5 -6.46389 0.015 0 0 -0.346714 0.0353429 
42 1 -0.132916 0.0847956 0.327788 0 -0.5 -6.40523 0.025 0 0 -1.60516 0.163625 
123 1 -0.11925 0.141492 0.333226 0 -0.5 -6.39689 0.015 0 0 -0.346714 0.0353429 
64 1 -0.145219 0.205177 0.353837 0 -0.5 -6.3652 0.015 0 0 -0.346714 0.0353429 
125 1 -0.0960051 0.197127 0.356591 0 -0.5 -6.36099 0.015 0 0 -0.346714 0.0353429 
392 1 -0.0201822 -0.0446234 0.378538 0 -0.5 -6.32704 0.015 0 0 -0.346714 0.0353429 
361 1 -0.0655065 -0.0168406 0.37486 0 -0.5 -6.33273 0.015 0 0 -0.346714 0.0353429 
375 1 -0.132504 0.0202129 0.388767 0 -0.5 -6.31115 0.015 0 0 -0.346714 0.0353429 
391 1 -0.0665259 0.18219 0.376881 0 -0.5 -6.32959 0.015 0 0 -0.346714 0.0353429 
353 1 -0.0778865 0.0365101 0.416936 0 -0.5 -6.2672 0.015 0 0 -0.346714 0.0353429 
370 1 -0.0476722 0.254061 0.416892 0 -0.5 -6.2673 0.015 0 0 -0.346714 0.0353429 
449 1 -0.121601 -0.0390298 0.450957 0 -0.5 -6.21374 0.015 0 0 -0.346714 0.0353429 
432 1 -0.110656 0.0960228 0.434882 0 -0.5 -6.23905 0.015 0 0 -0.346714 0.0353429 
423 1 -0.035066 0.200352 0.432459 0 -0.5 -6.24287 0.015 0 0 -0.346714 0.0353429 
348 1 -0.0497979 -0.0305226 0.477148 -0.0150753 -0.514502 -6.16959 0.025 0 0 -1.60516 0.163625 
409 1 -0.1116 0.0682793 0.486639 0 -0.5 -6.15713 0.015 0 0 -0.346714 0.0353429 
434 1 -0.110177 0.228235 0.483504 0 -0.5 -6.16214 0.015 0 0 -0.346714 0.0353429 
304 1 -0.147639 0.194299 0.521455 0 -0.5 -6.10141 0.025 0 0 -1.60516 0.163625 
414 1 -0.12165 0.138412 0.565792 0 -0.5 -6.0297 0.015 0 0 -0.346714 0.0353429 
327 1 -0.047146 0.231396 0.558684 0 -0.5 -6.04128 0.025 0 0 -1.60516 0.163625 
368 1 -0.0426125 0.00610308 0.589119 0 -0.5 -5.99164 0.015 0 0 -0.346714 0.0353429 
328 1 -0.101567 0.0313596 0.610515 0 -0.5 -5.95652 0.025 0 0 -1.60516 0.163625 
416 1 -0.148865 0.159752 0.582284 0 -0.5 -6.00282 0.015 0 0 -0.346714 0.0353429 
422 1 -0.0856494 0.222628 0.586732 0 -0.5 -5.99556 0.015 0 0 -0.346714 0.0353429 
307 1 -0.141488 0.000316359 0.625668 0 -0.5 -5.9315 0.025 0 0 -1.60516 0.163625 
342 1 -0.0942786 0.182007 0.61211 0 -0.5 -5.95387 0.025 0 0 -1.60516 0.163625 
441 1 -0.0895132 0.260957 0.626194 0 -0.5 -5.93062 0.015 0 0 -0.346714 0.0353429 
440 1 -0.074831 -0.0173668 0.643295 0 -0.5 -5.90227 0.015 0 0 -0.346714 0.0353429 
352 1 -0.144025 0.219939 0.657561 0 -0.5 -5.87853 0.015 0 0 -0.346714 0.0353429 
330 1 -0.125578 0.276028 0.663367 0 -0.5 -5.86882 0.025 0 0 -1.60516 0.163625 
388 1 -0.0545692 0.0466855 0.680283 0 -0.5 -5.84047 0.015 0 0 -0.346714 0.0353429 
323 1 -0.131477 0.115813 0.677665 0 -0.5 -5.84488 0.025 0 0 -1.60516 0.163625 
406 1 -0.0920408 0.219666 0.691251 0 -0.5 -5.82203 0.015 0 0 -0.346714 0.0353429 
331 1 -0.138106 -0.012169 0.761386 0 -0.5 -5.70264 0.025 0 0 -1.60516 0.163625 
418 1 -0.0554251 -0.00705966 0.743817 0 -0.5 -5.73275 0.015 0 0 -0.346714 0.0353429 
395 1 -0.110093 0.0438721 0.753046 0 -0.5 -5.71696 0.015 0 0 -0.346714 0.0353429 
318 1 -0.126425 0.193158 0.740673 0 -0.5 -5.73815 0.025 0 0 -1.60516 0.163625 
336 1 -0.025747 0.226523 0.751894 0 -0.5 -5.71892 0.025 0 0 -1.60516 0.163625 
313 1 -0.0392615 0.0316895 0.779018 0 -0.5 -5.67223 0.025 0 0 -1.60516 0.163625 
374 1 -0.133879 0.253467 0.782123 0 -0.5 -5.66683 0.015 0 0 -0.346714 0.0353429 
315 1 -0.0970947 0.0984065 0.81022 0 -0.5 -5.61798 0.025 0 0 -1.60516 0.163625 
407 1 -0.0713596 0.226089 0.812141 0 -0.5 -5.61464 0.015 0 0 -0.346714 0.0353429 
310 1 -0.0919271 0.263993 0.806347 0 -0.5 -5.62475 0.025 0 0 -1.60516 0.163625 
445 1 -0.0938501 0.168643 0.830947 0 -0.5 -5.58168 0.015 0 0 -0.346714 0.0353429 
377 1 -0.128279 0.0157203 0.862112 0 -0.5 -5.52665 0.015 0 0 -0.346714 0.0353429 
344 1 -0.147144 0.169445 0.883684 0 -0.5 -5.48819 0.025 0 0 -1.60516 0.163625 
386 1 -0.118095 0.23711 0.856789 0 -0.5 -5.53606 0.015 0 0 -0.346714 0.0353429 
302 1 -0.0567477 0.0133163 0.908939 0 -0.5 -5.44287 0.025 0 0 -1.60516 0.163625 
401 1 -0.0913429 0.0447804 0.906273 0 -0.5 -5.44768 0.015 0 0 -0.346714 0.0353429 
439 1 -0.132801 0.131897 0.902236 0 -0.5 -5.45493 0.015 0 0 -0.346714 0.0353429 
314 1 -0.136534 0.0812362 0.920997 0 -0.5 -5.42109 0.025 0 0 -1.60516 0.163625 
413 1 -0.0512121 0.230816 0.941255 0 -0.5 -5.3843 0.015 0 0 -0.346714 0.0353429 
442 1 -0.149932 0.290171 0.943043 0 -0.5 -5.38107 0.015 0 0 -0.346714 0.0353429 
431 1 -0.13363 0.0416506 0.95935 0 -0.5 -5.35124 0.015 0 0 -0.346714 0.0353429 
355 1 -0.0483468 0.0607585 0.94954 0 -0.5 -5.3692 0.015 0 0 -0.346714 0.0353429 
354 1 -0.0927402 0.229498 0.95721 0 -0.5 -5.35517 0.015 0 0 -0.346714 0.0353429 
408 1 -0.087028 0.298439 0.955228 0 -0.5 -5.3588 0.015 0 0 -0.346714 0.0353429 
382 1 -0.103183 0.325166 0.971349 0.026541 -0.439017 -5.39439 0.015 0 0 -0.346714 0.0353429 
446 1 -0.116317 0.198626 0.988155 0 -0.5 -5.29817 0.015 0 0 -0.346714 0.0353429 
411 1 -0.0485728 0.281056 0.998793 0 -0.5 -5.27845 0.015 0 0 -0.346714 0.0353429 
427 1 -0.0864582 0.393731 0.999674 0.0988458 -0.172977 -5.43162 0.015 0 0 -0.346714 0.0353429 
350 1 -0.147794 0.0513949 1.06008 0 -0.5 -5.16328 0.025 0 0 -1.60516 0.163625 
399 1 -0.074527 0.0640481 1.04444 0 -0.5 -5.19291 0.015 0 0 -0.346714 0.0353429 
335 1 -0.126459 0.112418 1.05978 0 -0.5 -5.16387 0.025 0 0 -1.60516 0.163625 
436 1 -0.0854574 0.118951 1.04355 0 -0.5 -5.19458 0.015 0 0 -0.346714 0.0353429 
341 1 -0.148816 0.232228 1.04719 0 -0.5 -5.18771 0.025 0 0 -1.60516 0.163625 
384 1 -0.185364 0.329653 1.06109 -0.135564 -0.440896 -5.17771 0.015 0 0 -0.346714 0.0353429 
389 1 -0.0230912 0.305676 1.04875 0 -0.5 -5.18477 0.015 0 0 -0.346714 0.0353429 
324 1 -0.0498553 0.0187032 1.07322 0 -0.5 -5.13827 0.025 0 0 -1.60516 0.163625 
437 1 -0.0723044 0.0952318 1.08333 0 -0.5 -5.11894 0.015 0 0 -0.346714 0.0353429 
385 1 -0.0696212 0.241365 1.06885 0 -0.5 -5.14661 0.015 0 0 -0.346714 0.0353429 
394 1 -0.145405 0.270684 1.11522 0 -0.5 -5.05743 0.015 0 0 -0.346714 0.0353429 
358 1 -0.127277 0.0427924 1.14949 0 -0.5 -4.99053 0.015 0 0 -0.346714 0.0353429 
367 1 -0.106717 0.0758308 1.13044 0 -0.5 -5.02781 0.015 0 0 -0.346714 0.0353429 
326 1 -0.145564 0.172454 1.15178 0 -0.5 -4.98602 0.025 0 0 -1.60516 0.163625 
426 1 -0.0179373 0.300964 1.1299 0 -0.5 -5.02889 0.015 0 0 -0.346714 0.0353429 
424 1 -0.139741 0.311663 1.13875 -0.0730123 -0.390635 -5.01906 0.015 0 0 -0.346714 0.0353429 
319 1 -0.0687817 0.322025 1.14593 0 -0.5 -4.99749 0.025 0 0 -1.60516 0.163625 
376 1 -0.0824761 0.0877717 1.17664 0 -0.5 -4.93687 0.015 0 0 -0.346714 0.0353429 
433 1 -0.118613 0.0286652 1.20944 0 -0.5 -4.87124 0.015 0 0 -0.346714 0.0353429 
420 1 -0.037203 0.0368256 1.21422 0 -0.5 -4.86163 0.015 0 0 -0.346714 0.0353429 
402 1 -0.101682 0.072287 1.21883 0 -0.5 -4.85231 0.015 0 0 -0.346714 0.0353429 
306 1 -0.116739 0.250034 1.21732 0 -0.5 -4.85535 0.025 0 0 -1.60516 0.163625 
371 1 -0.0449321 0.300104 1.2445 0 -0.5 -4.80012 0.015 0 0 -0.346714 0.0353429 
412 1 -0.0937388 0.320584 1.22484 0 -0.5 -4.84014 0.015 0 0 -0.346714 0.0353429 
363 1 -0.0911777 0.149327 1.24877 0 -0.5 -4.79139 0.015 0 0 -0.346714 0.0353429 
360 1 -0.116599 0.173221 1.24667 0 -0.5 -4.7957 0.015 0 0 -0.346714 0.0353429 
397 1 -0.0557758 0.261618 1.25365 0 -0.5 -4.78138 0.015 0 0 -0.346714 0.0353429 
322 1 -0.131733 0.0595637 1.2882 0 -0.5 -4.70996 0.025 0 0 -1.60516 0.163625 
373 1 -0.136858 0.206184 1.29977 0 -0.5 -4.68583 0.015 0 0 -0.346714 0.0353429 
396 1 -0.0958984 0.22666 1.29085 0 -0.5 -4.70447 0.015 0 0 -0.346714 0.0353429 
369 1 -0.138958 0.264563 1.30332 0 -0.5 -4.67838 0.015 0 0 -0.346714 0.0353429 
381 1 -0.0827007 0.295114 1.28392 0 -0.5 -4.71889 0.015 0 0 -0.346714 0.0353429 
383 1 -0.0262689 0.282803 1.30468 0 -0.5 -4.67553 0.015 0 0 -0.346714 0.0353429 
308 1 -0.0800115 0.0738021 1.33298 -0.0168546 -0.516386 -4.61433 0.025 0 0 -1.60516 0.163625 
438 1 -0.0987495 0.158333 1.33435 0 -0.5 -4.61284 0.015 0 0 -0.346714 0.0353429 
415 1 -0.127182 0.11013 1.3603 0 -0.5 -4.55732 0.015 0 0 -0.346714 0.0353429 
356 1 -0.111476 0.201564 1.34323 0 -0.5 -4.59391 0.015 0 0 -0.346714 0.0353429 
443 1 -0.0906469 0.256658 1.35774 0 -0.5 -4.56281 0.015 0 0 -0.346714 0.0353429 
340 1 -0.149237 0.329237 1.34259 0 -0.5 -4.59528 0.025 0 0 -1.60516 0.163625 
343 1 -0.140775 0.168899 1.36927 0 -0.5 -4.53799 0.025 0 0 -1.60516 0.163625 
349 1 -0.116564 0.288594 1.3743 0 -0.5 -4.52711 0.025 0 0 -1.60516 0.163625 
351 1 -0.0409452 0.287112 1.38017 0 -0.5 -4.51435 0.015 0 0 -0.346714 0.0353429 
390 1 -0.0988461 0.0705899 1.40765 0 -0.5 -4.45422 0.015 0 0 -0.346714 0.0353429 
448 1 -0.0329565 0.07957 1.43569 0 -0.5 -4.39202 0.015 0 0 -0.346714 0.0353429 
347 1 -0.0548177 0.11689 1.44297 0 -0.5 -4.37574 0.025 0 0 -1.60516 0.163625 
378 1 -0.121409 0.165198 1.45149 0 -0.5 -4.35661 0.015 0 0 -0.346714 0.0353429 
312 1 -0.134707 0.224718 1.4529 0 -0.5 -4.35347 0.025 0 0 -1.60516 0.163625 
417 1 -0.0160313 0.324054 1.45288 0 -0.5 -4.35347 0.015 0 0 -0.346714 0.0353429 
346 1 -0.153461 0.385618 1.44466 -0.0151472 -0.325165 -4.4119 0.025 0 0 -1.60516 0.163625 
419 1 -0.111609 0.0615188 1.47436 0 -0.5 -4.30481 0.015 0 0 -0.346714 0.0353429 
362 1 -0.0154426 0.111609 1.47073 0 -0.5 -4.31305 0.015 0 0 -0.346714 0.0353429 
359 1 -0.107325 0.269399 1.46227 0 -0.5 -4.33228 0.015 0 0 -0.346714 0.0353429 
303 1 -0.0551599 0.288479 1.47126 0 -0.5 -4.31187 0.025 0 0 -1.60516 0.163625 
334 1 -0.103439 0.324448 1.48463 0 -0.5 -4.28136 0.025 0 0 -1.60516 0.163625 
421 1 -0.0930175 0.141542 1.49228 0 -0.5 -4.2638 0.015 0 0 -0.346714 0.0353429 
325 1 -0.117824 0.185025 1.53887 0 -0.5 -4.15521 0.025 0 0 -1.60516 0.163625 
365 1 -0.139553 0.233075 1.53951 0.0322739 -0.84426 -4.07662 0.015 0 0 -0.346714 0.0353429 
309 1 -0.144284 0.100031 1.57677 0 -0.5 -4.06476 0.025 0 0 -1.60516 0.163625 
320 1 -0.0648735 0.100929 1.55705 0 -0.5 -4.11204 0.025 0 0 -1.60516 0.163625 
372 1 -0.0702168 0.284237 1.56395 0 -0.5 -4.09556 0.015 0 0 -0.346714 0.0353429 
447 1 -0.122284 0.365789 1.55817 0 -0.5 -4.1094 0.015 0 0 -0.346714 0.0353429 
430 1 -0.123083 0.147393 1.59007 0 -0.5 -4.03248 0.015 0 0 -0.346714 0.0353429 
403 1 -0.0833248 0.153397 1.59399 0 -0.5 -4.02297 0.015 0 0 -0.346714 0.0353429 
387 1 -0.0901615 0.262452 1.58107 0 -0.5 -4.05436 0.015 0 0 -0.346714 0.0353429 
393 1 -0.015571 0.324279 1.60817 0 -0.5 -3.98824 0.015 0 0 -0.346714 0.0353429 
338 1 -0.0583644 0.353556 1.57919 0 -0.5 -4.05887 0.025 0 0 -1.60516 0.163625 
379 1 -0.0327871 0.102329 1.6129 0 -0.5 -3.97657 0.015 0 0 -0.346714 0.0353429 
316 1 -0.0983119 0.0861107 1.65679 0 -0.5 -3.86679 0.025 0 0 -1.60516 0.163625 
357 1 -0.0584785 0.151214 1.64872 0 -0.5 -3.8872 0.015 0 0 -0.346714 0.0353429 
380 1 -0.127355 0.261976 1.66623 0 -0.5 -3.84276 0.015 0 0 -0.346714 0.0353429 
301 1 -0.0861376 0.324053 1.65862 0.012148 -0.512208 -3.86217 0.025 0 0 -1.60516 0.163625 
428 1 -0.0387226 0.336002 1.6649 0 -0.5 -3.84619 0.015 0 0 -0.346714 0.0353429 
329 1 -0.126077 0.364327 1.65375 -0.0138001 -0.485947 -3.87458 0.025 0 0 -1.60516 0.163625 
450 1 -0.0322061 0.380898 1.6665 0 -0.5 -3.84207 0.015 0 0 -0.346714 0.0353429 
364 1 -0.0453235 0.116807 1.67252 0 -0.5 -3.82667 0.015 0 0 -0.346714 0.0353429 
321 1 -0.126579 0.157251 1.67382 0 -0.5 -3.82334 0.025 0 0 -1.60516 0.163625 
410 1 -0.145474 0.206536 1.6797 0 -0.5 -3.80823 0.015 0 0 -0.346714 0.0353429 
333 1 -0.0978849 0.219337 1.67508 0 -0.5 -3.8201 0.025 0 0 -1.60516 0.163625 
337 1 -0.142368 0.302838 1.69396 0 -0.5 -3.77134 0.025 0 0 -1.60516 0.163625 
332 1 -0.0814262 0.148266 1.74454 0 -0.5 -3.63734 0.025 0 0 -1.60516 0.163625 
400 1 -0.135353 0.191905 1.74931 0 -0.5 -3.62449 0.015 0 0 -0.346714 0.0353429 
425 1 -0.074083 0.0947868 1.76309 0 -0.5 -3.58701 0.015 0 0 -0.346714 0.0353429 
311 1 -0.0354402 0.110368 1.77685 0 -0.5 -3.54915 0.025 0 0 -1.60516 0.163625 
345 1 -0.128178 0.158674 1.78692 0 -0.5 -3.52119 0.025 0 0 -1.60516 0.163625 
317 1 -0.129905 0.234055 1.77237 0 -0.5 -3.56151 0.025 0 0 -1.60516 0.163625 
366 1 -0.144217 0.311022 1.76927 0 -0.5 -3.57004 0.015 0 0 -0.346714 0.0353429 
339 1 -0.0802774 0.35666 1.7624 0 -0.5 -3.58888 0.025 0 0 -1.60516 0.163625 
405 1 -0.038992 0.34539 1.77663 0 -0.5 -3.54973 0.015 0 0 -0.346714 0.0353429 
305 1 -0.0452536 0.393472 1.76308 0 -0.5 -3.58701 0.025 0 0 -1.60516 0.163625 
544 1 -0.0404282 0.453185 1.76133 -0.39021 -0.130746 -3.67045 0.015 0 0 -0.346714 0.0353429 
404 1 -0.119976 0.115844 1.79136 0 -0.5 -3.50883 0.015 0 0 -0.346714 0.0353429 
435 1 -0.0960728 0.195976 1.79193 0 -0.5 -3.50726 0.015 0 0 -0.346714 0.0353429 
444 1 -0.0159467 0.391826 1.81259 0 -0.5 -3.44899 0.015 0 0 -0.346714 0.0353429 
714 1 -0.0240605 0.160326 1.8379 0 -0.5 -3.3762 0.015 0 0 -0.346714 0.0353429 
676 1 -0.132839 0.187867 1.85043 0 -0.5 -3.3396 0.015 0 0 -0.346714 0.0353429 
675 1 -0.133516 0.359658 1.82846 -0.0349785 -0.349711 -3.50408 0.015 0 0 -0.346714 0.0353429 
690 1 -0.0634806 0.358565 1.84274 0 -0.5 -3.36207 0.015 0 0 -0.346714 0.0353429 
634 1 -0.102181 0.380021 1.84441 0 -0.5 -3.35726 0.025 0 0 -1.60516 0.163625 
652 1 -0.0683105 0.192338 1.86205 0 -0.5 -3.30527 0.015 0 0 -0.346714 0.0353429 
629 1 -0.113195 0.239381 1.87128 0 -0.5 -3.2778 0.025 0 0 -1.60516 0.163625 
669 1 -0.0318411 0.369893 1.86477 0 -0.5 -3.29723 0.015 0 0 -0.346714 0.0353429 
608 1 -0.0938106 0.128793 1.89336 0 -0.5 -3.211 0.025 0 0 -1.60516 0.163625 
682 1 -0.0469368 0.124781 1.89961 0 -0.5 -3.19187 0.015 0 0 -0.346714 0.0353429 
657 1 -0.0480729 0.162927 1.90652 0 -0.5 -3.17058 0.015 0 0 -0.346714 0.0353429 
606 1 -0.122675 0.314841 1.89578 0.00210743 -0.508228 -3.19813 0.025 0 0 -1.60516 0.163625 
708 1 -0.0786991 0.353401 1.89481 0 -0.5 -3.20658 0.015 0 0 -0.346714 0.0353429 
660 1 -0.0183143 0.366377 1.90913 0 -0.5 -3.16244 0.015 0 0 -0.346714 0.0353429 
701 1 -0.0870486 0.411674 1.8974 0 -0.5 -3.19863 0.015 0 0 -0.346714 0.0353429 
735 1 -0.0832421 0.206669 1.91827 0 -0.5 -3.13399 0.015 0 0 -0.346714 0.0353429 
618 1 -0.13283 0.173164 1.94981 0 -0.5 -3.03363 0.025 0 0 -1.60516 0.163625 
707 1 -0.0900659 0.155989 1.96133 0 -0.5 -2.99616 0.015 0 0 -0.346714 0.0353429 
680 1 -0.0791761 0.210881 1.97129 0 -0.5 -2.96339 0.015 0 0 -0.346714 0.0353429 
709 1 -0.101732 0.255531 1.94364 0 -0.5 -3.05354 0.015 0 0 -0.346714 0.0353429 
649 1 -0.129761 0.289177 1.96218 0 -0.5 -2.99341 0.025 0 0 -1.60516 0.163625 
750 1 -0.0862874 0.320179 1.9513 0 -0.5 -3.02882 0.015 0 0 -0.346714 0.0353429 
677 1 -0.113879 0.146303 2.00043 0 -0.5 -2.86529 0.015 0 0 -0.346714 0.0353429 
640 1 -0.0489559 0.175517 1.9791 0 -0.5 -2.93739 0.025 0 0 -1.60516 0.163625 
616 1 -0.140255 0.381264 1.97963 0 -0.5 -2.93563 0.025 0 0 -1.60516 0.163625 
725 1 -0.0732043 0.383614 1.99363 0 -0.5 -2.88844 0.015 0 0 -0.346714 0.0353429 
712 1 -0.0372677 0.42655 1.98718 0 -0.5 -2.91032 0.015 0 0 -0.346714 0.0353429 
736 1 -0.0864872 0.239793 2.03205 0 -0.5 -2.75493 0.015 0 0 -0.346714 0.0353429 
744 1 -0.107021 0.332725 2.01182 0 -0.5 -2.82605 0.015 0 0 -0.346714 0.0353429 
685 1 -0.0969629 0.379703 2.02587 0 -0.5 -2.7768 0.015 0 0 -0.346714 0.0353429 
610 1 -0.108705 0.179549 2.05857 0 -0.5 -2.65879 0.025 0 0 -1.60516 0.163625 
692 1 -0.0389882 0.20107 2.04941 0 -0.5 -2.69234 0.015 0 0 -0.346714 0.0353429 
625 1 -0.103035 0.268319 2.06173 0.250947 -0.205125 -2.82821 0.025 0 0 -1.60516 0.163625 
722 1 -0.124711 0.378428 2.04947 0 -0.5 -2.69214 0.015 0 0 -0.346714 0.0353429 
683 1 -0.0829948 0.380592 2.06184 0 -0.5 -2.64672 0.015 0 0 -0.346714 0.0353429 
620 1 -0.0294016 0.411755 2.05634 0 -0.5 -2.66703 0.025 0 0 -1.60516 0.163625 
674 1 -0.11657 0.435544 2.04585 0 -0.5 -2.70529 0.015 0 0 -0.346714 0.0353429 
699 1 -0.0856858 0.43742 2.0442 0 -0.5 -2.71127 0.015 0 0 -0.346714 0.0353429 
748 1 -0.0192599 0.168831 2.07094 0 -0.5 -2.61278 0.015 0 0 -0.346714 0.0353429 
678 1 -0.0973357 0.309233 2.08719 0 -0.5 -2.55098 0.015 0 0 -0.346714 0.0353429 
636 1 -0.149776 0.354476 2.08008 0 -0.5 -2.57815 0.025 0 0 -1.60516 0.163625 
732 1 -0.0691875 0.417647 2.06594 0 -0.5 -2.63142 0.015 0 0 -0.346714 0.0353429 
705 1 -0.0946775 0.157279 2.09975 0 -0.5 -2.50222 0.015 0 0 -0.346714 0.0353429 
730 1 -0.0250727 0.169246 2.12085 0 -0.5 -2.41815 0.015 0 0 -0.346714 0.0353429 
641 1 -0.144798 0.223262 2.10606 -0.0165282 -0.51578 -2.46643 0.025 0 0 -1.60516 0.163625 
694 1 -0.138308 0.321231 2.11452 0 -0.5 -2.44366 0.015 0 0 -0.346714 0.0353429 
733 1 -0.0833844 0.354272 2.11516 0 -0.5 -2.44111 0.015 0 0 -0.346714 0.0353429 
696 1 -0.058387 0.383843 2.09603 0 -0.5 -2.51674 0.015 0 0 -0.346714 0.0353429 
698 1 -0.111785 0.397616 2.10714 0 -0.5 -2.47309 0.015 0 0 -0.346714 0.0353429 
648 1 -0.130879 0.438847 2.10168 0 -0.5 -2.49467 0.025 0 0 -1.60516 0.163625 
644 1 -0.140738 0.167303 2.13142 0 -0.5 -2.37479 0.025 0 0 -1.60516 0.163625 
637 1 -0.0618774 0.188817 2.12614 0 -0.5 -2.39657 0.025 0 0 -1.60516 0.163625 
729 1 -0.0894542 0.219908 2.12773 0 -0.5 -2.39 0.015 0 0 -0.346714 0.0353429 
724 1 -0.0903421 0.257009 2.13798 0 -0.5 -2.34762 0.015 0 0 -0.346714 0.0353429 
745 1 -0.109079 0.299595 2.14537 0.249023 -0.340208 -2.45294 0.015 0 0 -0.346714 0.0353429 
628 1 -0.0876728 0.387066 2.14809 -0.035052 -0.643145 -2.27847 0.025 0 0 -1.60516 0.163625 
639 1 -0.0722013 0.454337 2.13147 0.113569 0.037071 -2.4646 0.025 0 0 -1.60516 0.163625 
679 1 -0.13837 0.172158 2.17954 0 -0.5 -2.16692 0.015 0 0 -0.346714 0.0353429 
684 1 -0.0877228 0.202489 2.16348 0 -0.5 -2.23853 0.015 0 0 -0.346714 0.0353429 
706 1 -0.129002 0.221926 2.1837 0 -0.5 -2.14808 0.015 0 0 -0.346714 0.0353429 
627 1 -0.145071 0.279533 2.16972 -0.00145318 -0.500708 -2.21026 0.025 0 0 -1.60516 0.163625 