ITEM: TIMESTEP
92000
ITEM: NUMBER OF ATOMS
1200
ITEM: BOX BOUNDS mm mm mm
-1 1
-1 1
-4.01356 2.85
ITEM: ATOMS id type x y z vx vy vz radius fx fy fz mass 
68 1 -0.0997213 -0.214729 -3.67793 0 -0.5 -10.9371 0.015 0 0 -0.346714 0.0353429 
137 1 -0.0936975 -0.156203 -3.65191 -0.00924354 -0.479856 -10.9142 0.015 0 0 -0.346714 0.0353429 
45 1 -0.0943793 -0.263762 -3.62141 0 -0.5 -10.8862 0.025 0 0 -1.60516 0.163625 
33 1 -0.129286 -0.0233953 -3.6335 0 -0.5 -10.8971 0.025 0 0 -1.60516 0.163625 
122 1 -0.0655454 -0.216888 -3.62008 0.00811842 -0.517403 -10.8846 0.015 0 0 -0.346714 0.0353429 
119 1 -0.0370509 -0.274811 -3.56286 0 -0.5 -10.8334 0.015 0 0 -0.346714 0.0353429 
43 1 -0.116198 -0.112215 -3.57946 0 -0.5 -10.8484 0.025 0 0 -1.60516 0.163625 
111 1 -0.0487783 0.0201 -3.57827 0 -0.5 -10.8473 0.015 0 0 -0.346714 0.0353429 
78 1 -0.0422369 -0.0160449 -3.54739 0 -0.5 -10.8193 0.015 0 0 -0.346714 0.0353429 
75 1 -0.0493142 -0.224328 -3.52837 0 -0.5 -10.8021 0.015 0 0 -0.346714 0.0353429 
89 1 -0.129145 -0.195692 -3.51562 0 -0.5 -10.7905 0.015 0 0 -0.346714 0.0353429 
220 1 -0.0196923 -0.29072 -3.48275 -0.0669262 -0.554313 -10.7568 0.015 0 0 -0.346714 0.0353429 
59 1 -0.0865612 -0.0671322 -3.48739 0 -0.5 -10.7648 0.015 0 0 -0.346714 0.0353429 
92 1 -0.131017 0.0273272 -3.45749 0 -0.5 -10.7375 0.015 0 0 -0.346714 0.0353429 
98 1 -0.147127 -0.123558 -3.34668 0 -0.5 -10.6358 0.015 0 0 -0.346714 0.0353429 
151 1 -0.0686397 -0.041473 -3.34784 0 -0.5 -10.6369 0.015 0 0 -0.346714 0.0353429 
8 1 -0.104188 -0.256537 -3.31313 0 -0.5 -10.6048 0.025 0 0 -1.60516 0.163625 
3 1 -0.141317 -0.0586121 -3.29774 0 -0.5 -10.5906 0.025 0 0 -1.60516 0.163625 
72 1 -0.105673 -0.021204 -3.2712 0 -0.5 -10.5659 0.015 0 0 -0.346714 0.0353429 
100 1 -0.0681017 -0.188079 -3.2329 0 -0.5 -10.5303 0.015 0 0 -0.346714 0.0353429 
140 1 -0.125739 -0.146444 -3.24249 0 -0.5 -10.5393 0.015 0 0 -0.346714 0.0353429 
40 1 -0.104474 0.0301982 -3.24028 0 -0.5 -10.5372 0.025 0 0 -1.60516 0.163625 
118 1 -0.0372647 0.0136811 -3.2228 0 -0.5 -10.5209 0.015 0 0 -0.346714 0.0353429 
117 1 -0.0596227 -0.244979 -3.19317 0 -0.5 -10.4933 0.015 0 0 -0.346714 0.0353429 
148 1 -0.252979 -0.0597071 -3.19413 -0.171679 -0.397353 -10.5426 0.015 0 0 -0.346714 0.0353429 
51 1 -0.171474 -0.240283 -3.14152 -0.0265052 -0.519812 -10.4413 0.025 0 0 -1.60516 0.163625 
282 1 -0.125111 -0.255428 -3.12828 -0.2609 -0.673185 -10.4212 0.015 0 0 -0.346714 0.0353429 
90 1 -0.146535 0.0316669 -3.08031 0 -0.5 -10.3872 0.015 0 0 -0.346714 0.0353429 
11 1 -0.0882561 -0.0559216 -3.06155 0.022917 -0.457889 -10.3801 0.025 0 0 -1.60516 0.163625 
60 1 -0.0770515 -0.236072 -3.04196 0 -0.5 -10.3509 0.015 0 0 -0.346714 0.0353429 
50 1 -0.130982 -0.0116451 -3.03916 0 -0.5 -10.3483 0.025 0 0 -1.60516 0.163625 
105 1 -0.350038 -0.0202541 -2.95679 -0.321192 -0.368687 -10.2638 0.015 0 0 -0.346714 0.0353429 
74 1 -0.0790012 -0.0241066 -2.9759 0 -0.5 -10.2881 0.015 0 0 -0.346714 0.0353429 
44 1 -0.125916 -0.244403 -2.92777 0 -0.5 -10.2421 0.025 0 0 -1.60516 0.163625 
76 1 -0.0202065 0.00407003 -2.94703 0 -0.5 -10.2606 0.015 0 0 -0.346714 0.0353429 
29 1 -0.0788351 0.0181821 -2.89964 0 -0.5 -10.2151 0.025 0 0 -1.60516 0.163625 
36 1 -0.103411 -0.197688 -2.88872 0 -0.5 -10.2046 0.025 0 0 -1.60516 0.163625 
54 1 -0.204786 -0.17727 -2.84351 -0.0956439 -0.529683 -10.1533 0.015 0 0 -0.346714 0.0353429 
114 1 -0.0722227 -0.167381 -2.82413 -0.00040144 -0.499666 -10.1424 0.015 0 0 -0.346714 0.0353429 
113 1 -0.118506 0.0531977 -2.78049 0 -0.5 -10.1001 0.015 0 0 -0.346714 0.0353429 
73 1 -0.0639552 -0.218233 -2.76887 0 -0.5 -10.0888 0.015 0 0 -0.346714 0.0353429 
2 1 -0.110349 -0.0709288 -2.75839 0 -0.5 -10.0786 0.025 0 0 -1.60516 0.163625 
146 1 -0.109965 -0.231084 -2.7279 0 -0.5 -10.0489 0.015 0 0 -0.346714 0.0353429 
12 1 -0.0363281 0.0383359 -2.7307 0 -0.5 -10.0516 0.025 0 0 -1.60516 0.163625 
88 1 -0.0666498 -0.00408147 -2.69828 0 -0.5 -10.0199 0.015 0 0 -0.346714 0.0353429 
99 1 -0.146283 -0.166483 -2.65469 0 -0.5 -9.97715 0.015 0 0 -0.346714 0.0353429 
57 1 -0.120673 -0.114939 -2.67818 0 -0.5 -10.0002 0.015 0 0 -0.346714 0.0353429 
10 1 -0.0446669 0.0498312 -2.66386 0.0635655 -0.375939 -10.0338 0.025 0 0 -1.60516 0.163625 
34 1 -0.138562 0.00251099 -2.60037 0 -0.5 -9.92359 0.025 0 0 -1.60516 0.163625 
19 1 -0.0715757 -0.156748 -2.58273 0 -0.5 -9.90612 0.025 0 0 -1.60516 0.163625 
66 1 -0.0281121 -0.179177 -2.5753 0 -0.5 -9.89877 0.015 0 0 -0.346714 0.0353429 
83 1 -0.108229 -0.136854 -2.58975 0 -0.5 -9.91309 0.015 0 0 -0.346714 0.0353429 
71 1 -0.145263 0.0461975 -2.55976 0 -0.5 -9.88337 0.015 0 0 -0.346714 0.0353429 
81 1 -0.00989723 0.0372251 -2.5435 0.07636 -0.438847 -9.84628 0.015 0 0 -0.346714 0.0353429 
67 1 -0.0183057 -0.223611 -2.52652 0 -0.5 -9.85031 0.015 0 0 -0.346714 0.0353429 
24 1 -0.138394 -0.196548 -2.50261 0 -0.5 -9.82647 0.025 0 0 -1.60516 0.163625 
133 1 -0.127566 -0.0800556 -2.48572 0 -0.5 -9.80959 0.015 0 0 -0.346714 0.0353429 
95 1 -0.10482 0.00731222 -2.47896 0 -0.5 -9.80282 0.015 0 0 -0.346714 0.0353429 
39 1 -0.0696793 0.05701 -2.47875 0 -0.5 -9.80263 0.025 0 0 -1.60516 0.163625 
103 1 -0.135939 -0.152278 -2.43123 0 -0.5 -9.75495 0.015 0 0 -0.346714 0.0353429 
143 1 -0.11631 0.0656819 -2.41437 0 -0.5 -9.73798 0.015 0 0 -0.346714 0.0353429 
70 1 -0.107191 -0.170076 -2.40757 0 -0.5 -9.73111 0.015 0 0 -0.346714 0.0353429 
28 1 -0.0685748 -0.19393 -2.35892 0 -0.5 -9.68197 0.025 0 0 -1.60516 0.163625 
97 1 -0.0338223 -0.166856 -2.37637 0 -0.5 -9.69962 0.015 0 0 -0.346714 0.0353429 
115 1 -0.076478 -0.131569 -2.37559 0 -0.5 -9.69884 0.015 0 0 -0.346714 0.0353429 
85 1 -0.13789 -0.00998481 -2.37094 0 -0.5 -9.69413 0.015 0 0 -0.346714 0.0353429 
134 1 -0.137197 0.0303666 -2.33988 0 -0.5 -9.66264 0.015 0 0 -0.346714 0.0353429 
120 1 -0.148569 0.0792607 -2.32239 0 -0.5 -9.64488 0.015 0 0 -0.346714 0.0353429 
77 1 -0.0297287 0.0587485 -2.32627 0 -0.5 -9.64881 0.015 0 0 -0.346714 0.0353429 
96 1 -0.131998 -0.166919 -2.2888 0 -0.5 -9.61065 0.015 0 0 -0.346714 0.0353429 
126 1 -0.133766 -0.100185 -2.30812 -0.0288748 -0.539424 -9.61747 0.015 0 0 -0.346714 0.0353429 
38 1 -0.121616 -0.125812 -2.24957 0 -0.5 -9.57052 0.025 0 0 -1.60516 0.163625 
130 1 -0.0642546 -0.131559 -2.17646 0 -0.5 -9.49528 0.015 0 0 -0.346714 0.0353429 
23 1 -0.134189 0.010519 -2.17816 0 -0.5 -9.49705 0.025 0 0 -1.60516 0.163625 
31 1 -0.140814 -0.189123 -2.10618 0 -0.5 -9.42239 0.025 0 0 -1.60516 0.163625 
150 1 -0.100106 -0.154793 -2.13373 0 -0.5 -9.45104 0.015 0 0 -0.346714 0.0353429 
18 1 -0.106015 0.075686 -2.13138 0 -0.5 -9.44859 0.025 0 0 -1.60516 0.163625 
4 1 -0.0330873 0.0888569 -2.13287 0 -0.5 -9.45016 0.025 0 0 -1.60516 0.163625 
106 1 -0.175431 0.275487 -2.13627 -0.0998962 -0.230395 -9.53113 0.015 0 0 -0.346714 0.0353429 
110 1 -0.0868918 -0.199583 -2.05647 0 -0.5 -9.3705 0.015 0 0 -0.346714 0.0353429 
93 1 -0.0244706 -0.187842 -2.0313 0 -0.5 -9.34411 0.015 0 0 -0.346714 0.0353429 
17 1 -0.134634 -0.0739735 -2.0186 0 -0.5 -9.33077 0.025 0 0 -1.60516 0.163625 
136 1 -0.0832352 0.0190076 -2.02476 0 -0.5 -9.33724 0.015 0 0 -0.346714 0.0353429 
30 1 -0.0481876 0.0468572 -2.01011 0 -0.5 -9.32184 0.025 0 0 -1.60516 0.163625 
109 1 -0.0676248 0.0940796 -2.01208 0 -0.5 -9.3239 0.015 0 0 -0.346714 0.0353429 
1 1 -0.157479 0.404551 -1.99512 -0.021394 -0.0706631 -9.39609 0.025 0 0 -1.60516 0.163625 
108 1 -0.089121 -0.167176 -1.93354 0 -0.5 -9.24091 0.015 0 0 -0.346714 0.0353429 
69 1 -0.020474 -0.146917 -1.89252 0 -0.5 -9.19725 0.015 0 0 -0.346714 0.0353429 
35 1 -0.146938 0.026792 -1.8803 0 -0.5 -9.18421 0.025 0 0 -1.60516 0.163625 
22 1 -0.102489 -0.0416935 -1.83312 0 -0.5 -9.13368 0.025 0 0 -1.60516 0.163625 
102 1 -0.11709 -0.167101 -1.82353 0 -0.5 -9.12338 0.015 0 0 -0.346714 0.0353429 
14 1 -0.0571303 -0.175025 -1.80376 0 -0.5 -9.1021 0.025 0 0 -1.60516 0.163625 
139 1 -0.104092 -0.109428 -1.82381 0 -0.5 -9.12368 0.015 0 0 -0.346714 0.0353429 
144 1 -0.0691235 -0.106526 -1.82554 0 -0.5 -9.12554 0.015 0 0 -0.346714 0.0353429 
141 1 -0.136875 -0.0937358 -1.77677 0 -0.5 -9.07296 0.015 0 0 -0.346714 0.0353429 
55 1 -0.0960025 0.0644071 -1.79514 -7.52477e-06 -0.49998 -9.09281 0.015 0 0 -0.346714 0.0353429 
21 1 -0.0470047 0.1095 -1.75015 0 -0.5 -9.04412 0.025 0 0 -1.60516 0.163625 
94 1 -0.36596 0.152001 -1.74639 -0.356499 -0.190573 -9.08035 0.015 0 0 -0.346714 0.0353429 
87 1 -0.113676 0.0275876 -1.72314 0 -0.5 -9.01479 0.015 0 0 -0.346714 0.0353429 
107 1 -0.141609 -0.178052 -1.67487 0 -0.5 -8.96211 0.015 0 0 -0.346714 0.0353429 
112 1 -0.073338 -0.0947213 -1.62707 0 -0.5 -8.90962 0.015 0 0 -0.346714 0.0353429 
84 1 -0.116406 -0.0142137 -1.63339 0 -0.5 -8.91659 0.015 0 0 -0.346714 0.0353429 
147 1 -0.100309 0.0974308 -1.64589 0 -0.5 -8.93032 0.015 0 0 -0.346714 0.0353429 
142 1 -0.0724928 -0.153252 -1.58743 0 -0.5 -8.86587 0.015 0 0 -0.346714 0.0353429 
47 1 -0.140465 0.0694497 -1.58725 0 -0.5 -8.86568 0.025 0 0 -1.60516 0.163625 
145 1 -0.0934491 0.0621128 -1.58352 0 -0.5 -8.86156 0.015 0 0 -0.346714 0.0353429 
6 1 -0.0394464 -0.0824043 -1.54726 0.101461 -0.428163 -8.82505 0.025 0 0 -1.60516 0.163625 
80 1 -0.102893 0.0328925 -1.55451 0 -0.5 -8.82938 0.015 0 0 -0.346714 0.0353429 
135 1 -0.140472 -0.0851074 -1.50129 0 -0.5 -8.77003 0.015 0 0 -0.346714 0.0353429 
62 1 -0.0849655 0.122406 -1.5018 0 -0.5 -8.77062 0.015 0 0 -0.346714 0.0353429 
280 1 -0.178295 0.428746 -1.50317 -0.323138 -0.0374805 -8.8327 0.015 0 0 -0.346714 0.0353429 
32 1 -0.191893 -0.18768 -1.49593 -0.0613285 -0.540948 -8.76211 0.025 0 0 -1.60516 0.163625 
15 1 -0.0633109 0.0339284 -1.47395 0.0430154 -0.390763 -8.71785 0.025 0 0 -1.60516 0.163625 
138 1 -0.0317395 -0.150684 -1.46629 0 -0.5 -8.73079 0.015 0 0 -0.346714 0.0353429 
128 1 -0.145291 -0.0003232 -1.46322 0 -0.5 -8.72735 0.015 0 0 -0.346714 0.0353429 
121 1 -0.0679495 0.104078 -1.42622 0 -0.5 -8.68566 0.015 0 0 -0.346714 0.0353429 
129 1 -0.0553418 -0.126801 -1.35809 0 -0.5 -8.60836 0.015 0 0 -0.346714 0.0353429 
13 1 -0.146779 -0.0441789 -1.33092 0 -0.5 -8.57736 0.025 0 0 -1.60516 0.163625 
101 1 -0.102489 -0.0341755 -1.33848 0 -0.5 -8.58599 0.015 0 0 -0.346714 0.0353429 
37 1 -0.0716655 0.0686653 -1.33951 0 -0.5 -8.58717 0.025 0 0 -1.60516 0.163625 
46 1 -0.032303 0.130569 -1.32981 0 -0.5 -8.57608 0.025 0 0 -1.60516 0.163625 
61 1 -0.0231802 -0.157065 -1.30986 0 -0.5 -8.55323 0.015 0 0 -0.346714 0.0353429 
52 1 -0.100497 -0.14151 -1.29449 0 -0.5 -8.53557 0.015 0 0 -0.346714 0.0353429 
79 1 -0.0179342 -0.123016 -1.30969 0 -0.5 -8.55303 0.015 0 0 -0.346714 0.0353429 
91 1 -0.124131 0.062132 -1.30883 0 -0.5 -8.55205 0.015 0 0 -0.346714 0.0353429 
5 1 -0.137704 -0.113588 -1.27453 0 -0.5 -8.51261 0.025 0 0 -1.60516 0.163625 
7 1 -0.0712578 -0.0745506 -1.26832 0 -0.5 -8.50545 0.025 0 0 -1.60516 0.163625 
20 1 -0.124339 0.0138877 -1.28074 0 -0.5 -8.51978 0.025 0 0 -1.60516 0.163625 
86 1 -0.142939 0.0550587 -1.20278 0 -0.5 -8.42952 0.015 0 0 -0.346714 0.0353429 
9 1 -0.0320364 0.0891587 -1.19637 0 -0.5 -8.42207 0.025 0 0 -1.60516 0.163625 
58 1 -0.0969698 -0.0401093 -1.17032 0 -0.5 -8.39166 0.015 0 0 -0.346714 0.0353429 
124 1 -0.136447 0.0853765 -1.17056 0 -0.5 -8.39195 0.015 0 0 -0.346714 0.0353429 
65 1 -0.147981 -0.136903 -1.14461 0 -0.5 -8.36154 0.015 0 0 -0.346714 0.0353429 
41 1 -0.107908 0.140758 -1.14945 0 -0.5 -8.36723 0.025 0 0 -1.60516 0.163625 
104 1 -0.138444 0.0272171 -1.07463 0 -0.5 -8.27904 0.015 0 0 -0.346714 0.0353429 
131 1 -0.025873 0.12804 -1.09254 0 -0.5 -8.30023 0.015 0 0 -0.346714 0.0353429 
132 1 -0.0234712 -0.103832 -1.03952 0 -0.5 -8.23735 0.015 0 0 -0.346714 0.0353429 
48 1 -0.144727 -0.046148 -1.04102 0 -0.5 -8.23911 0.025 0 0 -1.60516 0.163625 
53 1 -0.106432 -0.00165971 -1.03705 0 -0.5 -8.2344 0.015 0 0 -0.346714 0.0353429 
49 1 -0.0613084 -0.12629 -1.00257 0 -0.5 -8.1932 0.025 0 0 -1.60516 0.163625 
16 1 -0.129915 0.0970792 -0.996739 0 -0.5 -8.18624 0.025 0 0 -1.60516 0.163625 
82 1 -0.0851821 0.0876269 -0.984881 0 -0.5 -8.17201 0.015 0 0 -0.346714 0.0353429 
27 1 -0.0637137 0.123885 -0.995521 0 -0.5 -8.18476 0.025 0 0 -1.60516 0.163625 
63 1 -0.147823 0.153713 -0.967429 0 -0.5 -8.15102 0.015 0 0 -0.346714 0.0353429 
127 1 -0.0304133 -0.0803788 -0.934815 0 -0.5 -8.11168 0.015 0 0 -0.346714 0.0353429 
56 1 -0.11556 0.151119 -0.935066 0 -0.5 -8.11197 0.015 0 0 -0.346714 0.0353429 
25 1 -0.104447 -0.0922147 -0.913672 0 -0.5 -8.08607 0.025 0 0 -1.60516 0.163625 
42 1 -0.132916 0.000795644 -0.88673 0 -0.5 -8.05331 0.025 0 0 -1.60516 0.163625 
123 1 -0.11925 0.0574922 -0.87989 0 -0.5 -8.04497 0.015 0 0 -0.346714 0.0353429 
125 1 -0.0960051 0.113127 -0.850494 0 -0.5 -8.00907 0.015 0 0 -0.346714 0.0353429 
64 1 -0.145219 0.121177 -0.853956 0 -0.5 -8.01328 0.015 0 0 -0.346714 0.0353429 
392 1 -0.0201822 -0.128623 -0.822844 0 -0.5 -7.97512 0.015 0 0 -0.346714 0.0353429 
361 1 -0.0655065 -0.100841 -0.827478 0 -0.5 -7.98081 0.015 0 0 -0.346714 0.0353429 
375 1 -0.132504 -0.0637871 -0.809945 0 -0.5 -7.95923 0.015 0 0 -0.346714 0.0353429 
391 1 -0.0665259 0.0981896 -0.82493 0 -0.5 -7.97767 0.015 0 0 -0.346714 0.0353429 
353 1 -0.0778865 -0.0474899 -0.774393 0 -0.5 -7.91528 0.015 0 0 -0.346714 0.0353429 
370 1 -0.0476722 0.170061 -0.774453 0 -0.5 -7.91538 0.015 0 0 -0.346714 0.0353429 
432 1 -0.110656 0.0120228 -0.751717 0 -0.5 -7.88713 0.015 0 0 -0.346714 0.0353429 
423 1 -0.035066 0.116352 -0.754783 0 -0.5 -7.89095 0.015 0 0 -0.346714 0.0353429 
449 1 -0.121601 -0.12303 -0.73139 0 -0.5 -7.86182 0.015 0 0 -0.346714 0.0353429 
348 1 -0.0523305 -0.116959 -0.697782 -0.0150753 -0.514502 -7.81767 0.025 0 0 -1.60516 0.163625 
409 1 -0.1116 -0.0157207 -0.686199 0 -0.5 -7.80521 0.015 0 0 -0.346714 0.0353429 
434 1 -0.110177 0.144235 -0.690174 0 -0.5 -7.81022 0.015 0 0 -0.346714 0.0353429 
304 1 -0.147639 0.110299 -0.642021 0 -0.5 -7.74949 0.025 0 0 -1.60516 0.163625 
327 1 -0.047146 0.147396 -0.59469 0 -0.5 -7.68936 0.025 0 0 -1.60516 0.163625 
414 1 -0.12165 0.0544124 -0.585637 0 -0.5 -7.67778 0.015 0 0 -0.346714 0.0353429 
416 1 -0.148865 0.0757519 -0.564629 0 -0.5 -7.6509 0.015 0 0 -0.346714 0.0353429 
422 1 -0.0856494 0.138628 -0.558961 0 -0.5 -7.64364 0.015 0 0 -0.346714 0.0353429 
368 1 -0.0426125 -0.0778969 -0.555915 0 -0.5 -7.63972 0.015 0 0 -0.346714 0.0353429 
328 1 -0.101567 -0.0526404 -0.528619 0 -0.5 -7.6046 0.025 0 0 -1.60516 0.163625 
342 1 -0.0942786 0.0980065 -0.526579 0 -0.5 -7.60195 0.025 0 0 -1.60516 0.163625 
307 1 -0.141488 -0.0836836 -0.509264 0 -0.5 -7.57958 0.025 0 0 -1.60516 0.163625 
441 1 -0.0895132 0.176957 -0.508589 0 -0.5 -7.5787 0.015 0 0 -0.346714 0.0353429 
440 1 -0.074831 -0.101367 -0.486726 0 -0.5 -7.55035 0.015 0 0 -0.346714 0.0353429 
352 1 -0.144025 0.135939 -0.468471 0 -0.5 -7.52661 0.015 0 0 -0.346714 0.0353429 
388 1 -0.0545692 -0.0373145 -0.439354 0 -0.5 -7.48855 0.015 0 0 -0.346714 0.0353429 
323 1 -0.131477 0.0318135 -0.442713 0 -0.5 -7.49296 0.025 0 0 -1.60516 0.163625 
330 1 -0.125578 0.192028 -0.461034 0 -0.5 -7.5169 0.025 0 0 -1.60516 0.163625 
406 1 -0.0920408 0.135666 -0.425288 0 -0.5 -7.47011 0.015 0 0 -0.346714 0.0353429 
418 1 -0.0554251 -0.0910597 -0.357725 0 -0.5 -7.38083 0.015 0 0 -0.346714 0.0353429 
395 1 -0.110093 -0.0401279 -0.345842 0 -0.5 -7.36504 0.015 0 0 -0.346714 0.0353429 
318 1 -0.126425 0.109158 -0.361775 0 -0.5 -7.38623 0.025 0 0 -1.60516 0.163625 
336 1 -0.025747 0.142523 -0.347324 0 -0.5 -7.367 0.025 0 0 -1.60516 0.163625 
331 1 -0.138106 -0.096169 -0.335096 0 -0.5 -7.35072 0.025 0 0 -1.60516 0.163625 
313 1 -0.0392615 -0.0523105 -0.312355 0 -0.5 -7.32031 0.025 0 0 -1.60516 0.163625 
374 1 -0.133879 0.169467 -0.308344 0 -0.5 -7.31491 0.015 0 0 -0.346714 0.0353429 
315 1 -0.0970947 0.0144065 -0.272039 0 -0.5 -7.26606 0.025 0 0 -1.60516 0.163625 
407 1 -0.0713596 0.142089 -0.269557 0 -0.5 -7.26272 0.015 0 0 -0.346714 0.0353429 
310 1 -0.0919271 0.179993 -0.277049 0 -0.5 -7.27283 0.025 0 0 -1.60516 0.163625 
445 1 -0.0938501 0.0846432 -0.245214 0 -0.5 -7.22976 0.015 0 0 -0.346714 0.0353429 
377 1 -0.128279 -0.0682797 -0.204804 0 -0.5 -7.17473 0.015 0 0 -0.346714 0.0353429 
386 1 -0.118095 0.15311 -0.211709 0 -0.5 -7.18414 0.015 0 0 -0.346714 0.0353429 
344 1 -0.147144 0.0854448 -0.17677 0 -0.5 -7.13627 0.025 0 0 -1.60516 0.163625 
302 1 -0.0567477 -0.0706837 -0.143902 0 -0.5 -7.09095 0.025 0 0 -1.60516 0.163625 
401 1 -0.0913429 -0.0392196 -0.147375 0 -0.5 -7.09576 0.015 0 0 -0.346714 0.0353429 
439 1 -0.132801 0.0478967 -0.152632 0 -0.5 -7.10301 0.015 0 0 -0.346714 0.0353429 
314 1 -0.136534 -0.00276378 -0.128185 0 -0.5 -7.06917 0.025 0 0 -1.60516 0.163625 
413 1 -0.0512121 0.146816 -0.101747 0 -0.5 -7.03238 0.015 0 0 -0.346714 0.0353429 
431 1 -0.13363 -0.0423494 -0.0780978 0 -0.5 -6.99932 0.015 0 0 -0.346714 0.0353429 
355 1 -0.0483468 -0.0232415 -0.0909234 0 -0.5 -7.01728 0.015 0 0 -0.346714 0.0353429 
354 1 -0.0927402 0.145498 -0.0808973 0 -0.5 -7.00325 0.015 0 0 -0.346714 0.0353429 
442 1 -0.149932 0.206171 -0.0994144 0 -0.5 -7.02915 0.015 0 0 -0.346714 0.0353429 
408 1 -0.087028 0.214439 -0.0834886 0 -0.5 -7.00688 0.015 0 0 -0.346714 0.0353429 
382 1 -0.0987239 0.251411 -0.0733471 0.026541 -0.439017 -7.04247 0.015 0 0 -0.346714 0.0353429 
446 1 -0.116317 0.114626 -0.0403766 0 -0.5 -6.94625 0.015 0 0 -0.346714 0.0353429 
427 1 -0.0698521 0.364671 -0.0512778 0.0988458 -0.172977 -7.0797 0.015 0 0 -0.346714 0.0353429 
411 1 -0.0485728 0.197056 -0.0264263 0 -0.5 -6.92653 0.015 0 0 -0.346714 0.0353429 
399 1 -0.074527 -0.0199519 0.0335899 0 -0.5 -6.84099 0.015 0 0 -0.346714 0.0353429 
436 1 -0.0854574 0.0349506 0.0324265 0 -0.5 -6.84266 0.015 0 0 -0.346714 0.0353429 
341 1 -0.148816 0.148228 0.0372178 0 -0.5 -6.83579 0.025 0 0 -1.60516 0.163625 
389 1 -0.0230912 0.221676 0.0392734 0 -0.5 -6.83285 0.015 0 0 -0.346714 0.0353429 
324 1 -0.0498553 -0.0652968 0.071553 0 -0.5 -6.78635 0.025 0 0 -1.60516 0.163625 
350 1 -0.147794 -0.0326051 0.0542069 0 -0.5 -6.81136 0.025 0 0 -1.60516 0.163625 
335 1 -0.126459 0.0284178 0.0538117 0 -0.5 -6.81195 0.025 0 0 -1.60516 0.163625 
385 1 -0.0696212 0.157365 0.0657816 0 -0.5 -6.79469 0.015 0 0 -0.346714 0.0353429 
384 1 -0.208139 0.255583 0.0527965 -0.135564 -0.440896 -6.82579 0.015 0 0 -0.346714 0.0353429 
437 1 -0.0723044 0.0112318 0.0849054 0 -0.5 -6.76702 0.015 0 0 -0.346714 0.0353429 
394 1 -0.145405 0.186684 0.127133 0 -0.5 -6.70551 0.015 0 0 -0.346714 0.0353429 
358 1 -0.127277 -0.0412076 0.17264 0 -0.5 -6.63861 0.015 0 0 -0.346714 0.0353429 
367 1 -0.106717 -0.00816922 0.147333 0 -0.5 -6.67589 0.015 0 0 -0.346714 0.0353429 
426 1 -0.0179373 0.216964 0.14661 0 -0.5 -6.67697 0.015 0 0 -0.346714 0.0353429 
424 1 -0.152007 0.246036 0.157109 -0.0730123 -0.390635 -6.66714 0.015 0 0 -0.346714 0.0353429 
319 1 -0.0687817 0.238025 0.167916 0 -0.5 -6.64557 0.025 0 0 -1.60516 0.163625 
326 1 -0.145564 0.088454 0.175693 0 -0.5 -6.6341 0.025 0 0 -1.60516 0.163625 
376 1 -0.0824761 0.00377173 0.208806 0 -0.5 -6.58495 0.015 0 0 -0.346714 0.0353429 
433 1 -0.118613 -0.0553348 0.252633 0 -0.5 -6.51932 0.015 0 0 -0.346714 0.0353429 
420 1 -0.037203 -0.0471744 0.259029 0 -0.5 -6.50971 0.015 0 0 -0.346714 0.0353429 
306 1 -0.116739 0.166034 0.263182 0 -0.5 -6.50343 0.025 0 0 -1.60516 0.163625 
402 1 -0.101682 -0.011713 0.265204 0 -0.5 -6.50039 0.015 0 0 -0.346714 0.0353429 
412 1 -0.0937388 0.236584 0.273258 0 -0.5 -6.48822 0.015 0 0 -0.346714 0.0353429 
363 1 -0.0911777 0.0653271 0.305379 0 -0.5 -6.43947 0.015 0 0 -0.346714 0.0353429 
360 1 -0.116599 0.0892209 0.302555 0 -0.5 -6.44378 0.015 0 0 -0.346714 0.0353429 
397 1 -0.0557758 0.177618 0.311936 0 -0.5 -6.42946 0.015 0 0 -0.346714 0.0353429 
371 1 -0.0449321 0.216104 0.299645 0 -0.5 -6.4482 0.015 0 0 -0.346714 0.0353429 
381 1 -0.0827007 0.211114 0.352708 0 -0.5 -6.36697 0.015 0 0 -0.346714 0.0353429 
322 1 -0.131733 -0.0244363 0.358492 0 -0.5 -6.35804 0.025 0 0 -1.60516 0.163625 
373 1 -0.136858 0.122184 0.37411 0 -0.5 -6.33391 0.015 0 0 -0.346714 0.0353429 
396 1 -0.0958984 0.14266 0.362058 0 -0.5 -6.35255 0.015 0 0 -0.346714 0.0353429 
369 1 -0.138958 0.180563 0.378912 0 -0.5 -6.32646 0.015 0 0 -0.346714 0.0353429 
383 1 -0.0262689 0.198803 0.380757 0 -0.5 -6.32361 0.015 0 0 -0.346714 0.0353429 
308 1 -0.0828431 -0.0129508 0.419332 -0.0168546 -0.516386 -6.26241 0.025 0 0 -1.60516 0.163625 
438 1 -0.0987495 0.0743327 0.420957 0 -0.5 -6.26092 0.015 0 0 -0.346714 0.0353429 
356 1 -0.111476 0.117564 0.433015 0 -0.5 -6.24199 0.015 0 0 -0.346714 0.0353429 
340 1 -0.149237 0.245237 0.432146 0 -0.5 -6.24336 0.025 0 0 -1.60516 0.163625 
415 1 -0.127182 0.02613 0.456234 0 -0.5 -6.2054 0.015 0 0 -0.346714 0.0353429 
343 1 -0.140775 0.0848986 0.468447 0 -0.5 -6.18607 0.025 0 0 -1.60516 0.163625 
443 1 -0.0906469 0.172658 0.452749 0 -0.5 -6.21089 0.015 0 0 -0.346714 0.0353429 
349 1 -0.116564 0.204594 0.475303 0 -0.5 -6.17519 0.025 0 0 -1.60516 0.163625 
351 1 -0.0409452 0.203112 0.483321 0 -0.5 -6.16243 0.015 0 0 -0.346714 0.0353429 
390 1 -0.0988461 -0.0134101 0.520905 0 -0.5 -6.1023 0.015 0 0 -0.346714 0.0353429 
539 1 -0.0166814 0.476621 0.521457 -0.32393 0.0458257 -6.19726 0.015 0 0 -0.346714 0.0353429 
448 1 -0.0329565 -0.00443001 0.559396 0 -0.5 -6.0401 0.015 0 0 -0.346714 0.0353429 
347 1 -0.0548177 0.03289 0.569412 0 -0.5 -6.02382 0.025 0 0 -1.60516 0.163625 
346 1 -0.156006 0.330991 0.565021 -0.0151472 -0.325165 -6.05998 0.025 0 0 -1.60516 0.163625 
378 1 -0.121409 0.0811982 0.581141 0 -0.5 -6.00469 0.015 0 0 -0.346714 0.0353429 
312 1 -0.134707 0.140718 0.583074 0 -0.5 -6.00155 0.025 0 0 -1.60516 0.163625 
359 1 -0.107325 0.185399 0.596004 0 -0.5 -5.98036 0.015 0 0 -0.346714 0.0353429 
417 1 -0.0160313 0.240054 0.583061 0 -0.5 -6.00155 0.015 0 0 -0.346714 0.0353429 
419 1 -0.111609 -0.0224812 0.612715 0 -0.5 -5.95289 0.015 0 0 -0.346714 0.0353429 
362 1 -0.0154426 0.0276087 0.607699 0 -0.5 -5.96113 0.015 0 0 -0.346714 0.0353429 
303 1 -0.0551599 0.204479 0.608426 0 -0.5 -5.95995 0.025 0 0 -1.60516 0.163625 
334 1 -0.103439 0.240448 0.626918 0 -0.5 -5.92944 0.025 0 0 -1.60516 0.163625 
421 1 -0.0930175 0.0575422 0.637518 0 -0.5 -5.91188 0.015 0 0 -0.346714 0.0353429 
325 1 -0.111607 0.089975 0.701502 0.0497405 -0.588401 -5.81016 0.025 0 0 -1.60516 0.163625 
365 1 -0.162914 0.142396 0.720176 -0.198006 -0.434998 -5.69289 0.015 0 0 -0.346714 0.0353429 
320 1 -0.0648735 0.0169287 0.727784 0 -0.5 -5.76012 0.025 0 0 -1.60516 0.163625 
372 1 -0.0702168 0.200237 0.737462 0 -0.5 -5.74364 0.015 0 0 -0.346714 0.0353429 
447 1 -0.122284 0.281789 0.729351 0 -0.5 -5.75748 0.015 0 0 -0.346714 0.0353429 
309 1 -0.144284 0.0160309 0.755451 0 -0.5 -5.71284 0.025 0 0 -1.60516 0.163625 
430 1 -0.123083 0.0633929 0.774174 0 -0.5 -5.68056 0.015 0 0 -0.346714 0.0353429 
403 1 -0.0833248 0.069397 0.779694 0 -0.5 -5.67105 0.015 0 0 -0.346714 0.0353429 
387 1 -0.0901615 0.178452 0.761501 0 -0.5 -5.70244 0.015 0 0 -0.346714 0.0353429 
338 1 -0.0583644 0.269556 0.758865 0 -0.5 -5.70695 0.025 0 0 -1.60516 0.163625 
379 1 -0.0327871 0.0183292 0.8064 0 -0.5 -5.62465 0.015 0 0 -0.346714 0.0353429 
393 1 -0.015571 0.240279 0.799709 0 -0.5 -5.63632 0.015 0 0 -0.346714 0.0353429 
316 1 -0.0983119 0.00211068 0.86873 0 -0.5 -5.51487 0.025 0 0 -1.60516 0.163625 
357 1 -0.0584785 0.0672145 0.857232 0 -0.5 -5.53528 0.015 0 0 -0.346714 0.0353429 
301 1 -0.0840967 0.238002 0.871334 0.012148 -0.512208 -5.51025 0.025 0 0 -1.60516 0.163625 
329 1 -0.128396 0.282688 0.86438 -0.0138001 -0.485947 -5.52266 0.025 0 0 -1.60516 0.163625 
364 1 -0.0453235 0.0328065 0.8912 0 -0.5 -5.47475 0.015 0 0 -0.346714 0.0353429 
321 1 -0.126579 0.0732512 0.893058 0 -0.5 -5.47142 0.025 0 0 -1.60516 0.163625 
410 1 -0.145474 0.122536 0.90148 0 -0.5 -5.45631 0.015 0 0 -0.346714 0.0353429 
333 1 -0.0978849 0.135337 0.894863 0 -0.5 -5.46818 0.025 0 0 -1.60516 0.163625 
380 1 -0.127355 0.177976 0.882206 0 -0.5 -5.49084 0.015 0 0 -0.346714 0.0353429 
428 1 -0.0387226 0.252002 0.880299 0 -0.5 -5.49427 0.015 0 0 -0.346714 0.0353429 
450 1 -0.0322061 0.296898 0.882591 0 -0.5 -5.49015 0.015 0 0 -0.346714 0.0353429 
337 1 -0.142368 0.218838 0.921932 0 -0.5 -5.41942 0.025 0 0 -1.60516 0.163625 
332 1 -0.0814262 0.064266 0.995029 0 -0.5 -5.28542 0.025 0 0 -1.60516 0.163625 
425 1 -0.074083 0.0107868 1.02203 0 -0.5 -5.23509 0.015 0 0 -0.346714 0.0353429 
400 1 -0.135353 0.107905 1.00196 0 -0.5 -5.27257 0.015 0 0 -0.346714 0.0353429 
339 1 -0.0802774 0.27266 1.02103 0 -0.5 -5.23696 0.025 0 0 -1.60516 0.163625 
305 1 -0.0452536 0.309472 1.02202 0 -0.5 -5.23509 0.025 0 0 -1.60516 0.163625 
544 1 -0.105983 0.431219 1.00626 -0.39021 -0.130746 -5.31853 0.015 0 0 -0.346714 0.0353429 
311 1 -0.0354402 0.0263675 1.04215 0 -0.5 -5.19723 0.025 0 0 -1.60516 0.163625 
345 1 -0.128178 0.0746745 1.05692 0 -0.5 -5.16927 0.025 0 0 -1.60516 0.163625 
317 1 -0.129905 0.150055 1.0356 0 -0.5 -5.20959 0.025 0 0 -1.60516 0.163625 
366 1 -0.144217 0.227022 1.03106 0 -0.5 -5.21812 0.015 0 0 -0.346714 0.0353429 
405 1 -0.038992 0.26139 1.04184 0 -0.5 -5.19781 0.015 0 0 -0.346714 0.0353429 
404 1 -0.119976 0.0318444 1.06344 0 -0.5 -5.15691 0.015 0 0 -0.346714 0.0353429 
435 1 -0.0960728 0.111976 1.06427 0 -0.5 -5.15534 0.015 0 0 -0.346714 0.0353429 
675 1 -0.139392 0.300907 1.10134 -0.0349785 -0.349711 -5.15216 0.015 0 0 -0.346714 0.0353429 
444 1 -0.0159467 0.307826 1.09472 0 -0.5 -5.09707 0.015 0 0 -0.346714 0.0353429 
714 1 -0.0240605 0.076326 1.13226 0 -0.5 -5.02428 0.015 0 0 -0.346714 0.0353429 
634 1 -0.102181 0.296021 1.14195 0 -0.5 -5.00534 0.025 0 0 -1.60516 0.163625 
690 1 -0.0634806 0.274565 1.13948 0 -0.5 -5.01015 0.015 0 0 -0.346714 0.0353429 
676 1 -0.132839 0.103867 1.15094 0 -0.5 -4.98768 0.015 0 0 -0.346714 0.0353429 
652 1 -0.0683105 0.108338 1.16833 0 -0.5 -4.95335 0.015 0 0 -0.346714 0.0353429 
669 1 -0.0318411 0.285893 1.1724 0 -0.5 -4.94531 0.015 0 0 -0.346714 0.0353429 
629 1 -0.113195 0.155381 1.18217 0 -0.5 -4.92588 0.025 0 0 -1.60516 0.163625 
608 1 -0.0938106 0.0447933 1.21548 0 -0.5 -4.85908 0.025 0 0 -1.60516 0.163625 
682 1 -0.0469368 0.0407812 1.22494 0 -0.5 -4.83995 0.015 0 0 -0.346714 0.0353429 
657 1 -0.0480729 0.0789275 1.23542 0 -0.5 -4.81866 0.015 0 0 -0.346714 0.0353429 
606 1 -0.122321 0.229459 1.22006 0.00210743 -0.508228 -4.84621 0.025 0 0 -1.60516 0.163625 
708 1 -0.0786991 0.269401 1.21766 0 -0.5 -4.85466 0.015 0 0 -0.346714 0.0353429 
660 1 -0.0183143 0.282377 1.23941 0 -0.5 -4.81052 0.015 0 0 -0.346714 0.0353429 
701 1 -0.0870486 0.327674 1.22159 0 -0.5 -4.84671 0.015 0 0 -0.346714 0.0353429 
735 1 -0.0832421 0.122669 1.25332 0 -0.5 -4.78207 0.015 0 0 -0.346714 0.0353429 
618 1 -0.13283 0.0891641 1.30172 0 -0.5 -4.68171 0.025 0 0 -1.60516 0.163625 
709 1 -0.101732 0.171531 1.29221 0 -0.5 -4.70162 0.015 0 0 -0.346714 0.0353429 
707 1 -0.0900659 0.0719886 1.31954 0 -0.5 -4.64424 0.015 0 0 -0.346714 0.0353429 
649 1 -0.129761 0.205177 1.32084 0 -0.5 -4.64149 0.025 0 0 -1.60516 0.163625 
750 1 -0.0862874 0.236179 1.30402 0 -0.5 -4.6769 0.015 0 0 -0.346714 0.0353429 
640 1 -0.0489559 0.0915172 1.34718 0 -0.5 -4.58547 0.025 0 0 -1.60516 0.163625 
680 1 -0.0791761 0.126881 1.335 0 -0.5 -4.61147 0.015 0 0 -0.346714 0.0353429 
616 1 -0.140255 0.297264 1.348 0 -0.5 -4.58371 0.025 0 0 -1.60516 0.163625 
712 1 -0.0372677 0.34255 1.35981 0 -0.5 -4.5584 0.015 0 0 -0.346714 0.0353429 
677 1 -0.113879 0.0623032 1.38063 0 -0.5 -4.51337 0.015 0 0 -0.346714 0.0353429 
725 1 -0.0732043 0.299614 1.36994 0 -0.5 -4.53652 0.015 0 0 -0.346714 0.0353429 
744 1 -0.107021 0.248725 1.3986 0 -0.5 -4.47413 0.015 0 0 -0.346714 0.0353429 
685 1 -0.0969629 0.295703 1.42093 0 -0.5 -4.42488 0.015 0 0 -0.346714 0.0353429 
736 1 -0.0864872 0.155793 1.43079 0 -0.5 -4.40301 0.015 0 0 -0.346714 0.0353429 
625 1 -0.0608756 0.233858 1.44815 0.250947 -0.205125 -4.47629 0.025 0 0 -1.60516 0.163625 
674 1 -0.11657 0.351544 1.45292 0 -0.5 -4.35337 0.015 0 0 -0.346714 0.0353429 
699 1 -0.0856858 0.35342 1.45027 0 -0.5 -4.35935 0.015 0 0 -0.346714 0.0353429 
610 1 -0.108705 0.095549 1.47345 0 -0.5 -4.30687 0.025 0 0 -1.60516 0.163625 
692 1 -0.0389882 0.11707 1.45866 0 -0.5 -4.34042 0.015 0 0 -0.346714 0.0353429 
722 1 -0.124711 0.294428 1.45875 0 -0.5 -4.34022 0.015 0 0 -0.346714 0.0353429 
683 1 -0.0829948 0.296592 1.47875 0 -0.5 -4.2948 0.015 0 0 -0.346714 0.0353429 
620 1 -0.0294016 0.327755 1.46984 0 -0.5 -4.31511 0.025 0 0 -1.60516 0.163625 
732 1 -0.0691875 0.333647 1.48543 0 -0.5 -4.2795 0.015 0 0 -0.346714 0.0353429 
748 1 -0.0192599 0.0848309 1.49355 0 -0.5 -4.26086 0.015 0 0 -0.346714 0.0353429 
636 1 -0.149776 0.270476 1.50852 0 -0.5 -4.22623 0.025 0 0 -1.60516 0.163625 
705 1 -0.0946775 0.0732794 1.54093 0 -0.5 -4.1503 0.015 0 0 -0.346714 0.0353429 
678 1 -0.0973357 0.225233 1.52019 0 -0.5 -4.19906 0.015 0 0 -0.346714 0.0353429 
696 1 -0.058387 0.299843 1.53478 0 -0.5 -4.16482 0.015 0 0 -0.346714 0.0353429 
648 1 -0.130879 0.354847 1.54414 0 -0.5 -4.14275 0.025 0 0 -1.60516 0.163625 
730 1 -0.0250727 0.0852457 1.57616 0 -0.5 -4.06623 0.015 0 0 -0.346714 0.0353429 
641 1 -0.147575 0.136611 1.55326 -0.0165282 -0.51578 -4.11451 0.025 0 0 -1.60516 0.163625 
694 1 -0.138308 0.237231 1.56555 0 -0.5 -4.09174 0.015 0 0 -0.346714 0.0353429 
733 1 -0.0833844 0.270272 1.56662 0 -0.5 -4.08919 0.015 0 0 -0.346714 0.0353429 
698 1 -0.111785 0.313616 1.55323 0 -0.5 -4.12117 0.015 0 0 -0.346714 0.0353429 
639 1 -0.0531218 0.460565 1.57898 0.113569 0.037071 -4.11268 0.025 0 0 -1.60516 0.163625 
644 1 -0.140738 0.083303 1.59402 0 -0.5 -4.02287 0.025 0 0 -1.60516 0.163625 
637 1 -0.0618774 0.104817 1.58508 0 -0.5 -4.04465 0.025 0 0 -1.60516 0.163625 
729 1 -0.0894542 0.135908 1.58777 0 -0.5 -4.03808 0.015 0 0 -0.346714 0.0353429 
724 1 -0.0903421 0.173009 1.60514 0 -0.5 -3.9957 0.015 0 0 -0.346714 0.0353429 
745 1 -0.0672436 0.24244 1.59484 0.249023 -0.340208 -4.10102 0.015 0 0 -0.346714 0.0353429 
628 1 -0.0935615 0.279017 1.62686 -0.035052 -0.643145 -3.92655 0.025 0 0 -1.60516 0.163625 
684 1 -0.0877228 0.118489 1.64896 0 -0.5 -3.88661 0.015 0 0 -0.346714 0.0353429 
627 1 -0.145315 0.195414 1.65996 -0.00145318 -0.500708 -3.85834 0.025 0 0 -1.60516 0.163625 
603 1 -0.121744 0.252127 1.66919 0 -0.5 -3.83521 0.025 0 0 -1.60516 0.163625 