ITEM: TIMESTEP
65600
ITEM: NUMBER OF ATOMS
900
ITEM: BOX BOUNDS mm mm mm
-1 1
-1 1
-1.36586 2.85
ITEM: ATOMS id type x y z vx vy vz radius fx fy fz mass 
68 1 -0.0997213 -0.0827286 -1.1324 0 -0.5 -8.34722 0.015 0 0 -0.346714 0.0353429 
137 1 -0.0912572 -0.0295213 -1.11242 -0.00924354 -0.479856 -8.32436 0.015 0 0 -0.346714 0.0353429 
33 1 -0.129286 0.108605 -1.09852 0 -0.5 -8.30729 0.025 0 0 -1.60516 0.163625 
45 1 -0.0943793 -0.131762 -1.0893 0 -0.5 -8.2964 0.025 0 0 -1.60516 0.163625 
122 1 -0.0676887 -0.080294 -1.0884 0.00811842 -0.517403 -8.29478 0.015 0 0 -0.346714 0.0353429 
119 1 -0.0370509 -0.142811 -1.04471 0 -0.5 -8.24353 0.015 0 0 -0.346714 0.0353429 
43 1 -0.116198 0.0197854 -1.05735 0 -0.5 -8.25853 0.025 0 0 -1.60516 0.163625 
111 1 -0.0487783 0.1521 -1.05644 0 -0.5 -8.25746 0.015 0 0 -0.346714 0.0353429 
89 1 -0.129145 -0.0636921 -1.00879 0 -0.5 -8.20066 0.015 0 0 -0.346714 0.0353429 
75 1 -0.0493142 -0.0923279 -1.01848 0 -0.5 -8.21223 0.015 0 0 -0.346714 0.0353429 
78 1 -0.0422369 0.115955 -1.03295 0 -0.5 -8.2295 0.015 0 0 -0.346714 0.0353429 
220 1 -0.00202382 -0.144381 -0.984807 -0.0669262 -0.554313 -8.16699 0.015 0 0 -0.346714 0.0353429 
59 1 -0.0865612 0.0648678 -0.987339 0 -0.5 -8.17495 0.015 0 0 -0.346714 0.0353429 
92 1 -0.131017 0.159327 -0.96464 0 -0.5 -8.14768 0.015 0 0 -0.346714 0.0353429 
26 1 -0.024729 0.0310675 -0.912365 0.14857 -0.341553 -8.11673 0.025 0 0 -1.60516 0.163625 
98 1 -0.147127 0.00844182 -0.880686 0 -0.5 -8.04595 0.015 0 0 -0.346714 0.0353429 
151 1 -0.0686397 0.090527 -0.881561 0 -0.5 -8.04703 0.015 0 0 -0.346714 0.0353429 
8 1 -0.104188 -0.124537 -0.855319 0 -0.5 -8.01495 0.025 0 0 -1.60516 0.163625 
3 1 -0.141317 0.0733879 -0.843689 0 -0.5 -8.00073 0.025 0 0 -1.60516 0.163625 
140 1 -0.125739 -0.0144436 -0.801983 0 -0.5 -7.94942 0.015 0 0 -0.346714 0.0353429 
72 1 -0.105673 0.110796 -0.823649 0 -0.5 -7.9761 0.015 0 0 -0.346714 0.0353429 
40 1 -0.104474 0.162198 -0.80032 0 -0.5 -7.94736 0.025 0 0 -1.60516 0.163625 
100 1 -0.0681017 -0.056079 -0.794749 0 -0.5 -7.94049 0.015 0 0 -0.346714 0.0353429 
118 1 -0.0372647 0.145681 -0.787135 0 -0.5 -7.93108 0.015 0 0 -0.346714 0.0353429 
117 1 -0.0596227 -0.112979 -0.764813 0 -0.5 -7.90341 0.015 0 0 -0.346714 0.0353429 
148 1 -0.207656 0.045194 -0.752741 -0.171679 -0.397353 -7.95275 0.015 0 0 -0.346714 0.0353429 
51 1 -0.164476 -0.103053 -0.726859 -0.0265052 -0.519812 -7.85151 0.025 0 0 -1.60516 0.163625 
282 1 -0.0562332 -0.077707 -0.718946 -0.2609 -0.673185 -7.83133 0.015 0 0 -0.346714 0.0353429 
90 1 -0.146535 0.163667 -0.679949 0 -0.5 -7.79737 0.015 0 0 -0.346714 0.0353429 
60 1 -0.0770515 -0.104072 -0.651176 0 -0.5 -7.76107 0.015 0 0 -0.346714 0.0353429 
11 1 -0.0943062 0.064961 -0.663074 0.022917 -0.457889 -7.79023 0.025 0 0 -1.60516 0.163625 
50 1 -0.130982 0.120355 -0.649074 0 -0.5 -7.75842 0.025 0 0 -1.60516 0.163625 
105 1 -0.265243 0.0770793 -0.589009 -0.321192 -0.368687 -7.67394 0.015 0 0 -0.346714 0.0353429 
74 1 -0.0790012 0.107893 -0.601691 0 -0.5 -7.69829 0.015 0 0 -0.346714 0.0353429 
44 1 -0.125916 -0.112403 -0.565708 0 -0.5 -7.65228 0.025 0 0 -1.60516 0.163625 
76 1 -0.0202065 0.13607 -0.580103 0 -0.5 -7.67072 0.015 0 0 -0.346714 0.0353429 
36 1 -0.103411 -0.0656875 -0.53655 0 -0.5 -7.6148 0.025 0 0 -1.60516 0.163625 
29 1 -0.0788351 0.150182 -0.544701 0 -0.5 -7.6253 0.025 0 0 -1.60516 0.163625 
54 1 -0.179536 -0.0374333 -0.504888 -0.0956439 -0.529683 -7.5635 0.015 0 0 -0.346714 0.0353429 
114 1 -0.0721167 -0.0354693 -0.488385 -0.00040144 -0.499666 -7.55259 0.015 0 0 -0.346714 0.0353429 
73 1 -0.0639552 -0.0862333 -0.447284 0 -0.5 -7.49895 0.015 0 0 -0.346714 0.0353429 
2 1 -0.110349 0.0610712 -0.439501 0 -0.5 -7.48874 0.025 0 0 -1.60516 0.163625 
113 1 -0.118506 0.185198 -0.45593 0 -0.5 -7.51023 0.015 0 0 -0.346714 0.0353429 
146 1 -0.109965 -0.0990837 -0.416859 0 -0.5 -7.45902 0.015 0 0 -0.346714 0.0353429 
12 1 -0.0363281 0.170336 -0.418933 0 -0.5 -7.46177 0.025 0 0 -1.60516 0.163625 
57 1 -0.120673 0.0170605 -0.379984 0 -0.5 -7.41036 0.015 0 0 -0.346714 0.0353429 
88 1 -0.0666498 0.127919 -0.394885 0 -0.5 -7.43008 0.015 0 0 -0.346714 0.0353429 
99 1 -0.146283 -0.0344829 -0.362585 0 -0.5 -7.38731 0.015 0 0 -0.346714 0.0353429 
10 1 -0.0614482 0.149079 -0.356785 0.0635655 -0.375939 -7.444 0.025 0 0 -1.60516 0.163625 
83 1 -0.108229 -0.00485398 -0.314558 0 -0.5 -7.32325 0.015 0 0 -0.346714 0.0353429 
34 1 -0.138562 0.134511 -0.3224 0 -0.5 -7.33375 0.025 0 0 -1.60516 0.163625 
66 1 -0.0281121 -0.0471772 -0.30388 0 -0.5 -7.30893 0.015 0 0 -0.346714 0.0353429 
19 1 -0.0715757 -0.0247476 -0.309371 0 -0.5 -7.31628 0.025 0 0 -1.60516 0.163625 
71 1 -0.145263 0.178198 -0.292408 0 -0.5 -7.29353 0.015 0 0 -0.346714 0.0353429 
81 1 -0.0300563 0.153081 -0.285942 0.07636 -0.438847 -7.25644 0.015 0 0 -0.346714 0.0353429 
67 1 -0.0183057 -0.0916113 -0.267902 0 -0.5 -7.26047 0.015 0 0 -0.346714 0.0353429 
24 1 -0.138394 -0.0645481 -0.250281 0 -0.5 -7.23663 0.025 0 0 -1.60516 0.163625 
133 1 -0.127566 0.0519444 -0.237846 0 -0.5 -7.21975 0.015 0 0 -0.346714 0.0353429 
95 1 -0.10482 0.139312 -0.232874 0 -0.5 -7.21298 0.015 0 0 -0.346714 0.0353429 
39 1 -0.0696793 0.18901 -0.232717 0 -0.5 -7.21279 0.025 0 0 -1.60516 0.163625 
103 1 -0.135939 -0.0202777 -0.197785 0 -0.5 -7.16511 0.015 0 0 -0.346714 0.0353429 
70 1 -0.107191 -0.0380756 -0.18041 0 -0.5 -7.14127 0.015 0 0 -0.346714 0.0353429 
143 1 -0.11631 0.197682 -0.185403 0 -0.5 -7.14814 0.015 0 0 -0.346714 0.0353429 
28 1 -0.0685748 -0.0619299 -0.144744 0 -0.5 -7.09213 0.025 0 0 -1.60516 0.163625 
97 1 -0.0338223 -0.034856 -0.157527 0 -0.5 -7.10978 0.015 0 0 -0.346714 0.0353429 
115 1 -0.076478 0.000431059 -0.156954 0 -0.5 -7.109 0.015 0 0 -0.346714 0.0353429 
85 1 -0.13789 0.122015 -0.153547 0 -0.5 -7.10429 0.015 0 0 -0.346714 0.0353429 
134 1 -0.137197 0.162367 -0.130802 0 -0.5 -7.0728 0.015 0 0 -0.346714 0.0353429 
126 1 -0.126143 0.0422228 -0.110967 -0.0288748 -0.539424 -7.02763 0.015 0 0 -0.346714 0.0353429 
77 1 -0.0297287 0.190749 -0.120842 0 -0.5 -7.05897 0.015 0 0 -0.346714 0.0353429 
120 1 -0.148569 0.211261 -0.118003 0 -0.5 -7.05504 0.015 0 0 -0.346714 0.0353429 
96 1 -0.131998 -0.0349186 -0.0934449 0 -0.5 -7.02081 0.015 0 0 -0.346714 0.0353429 
38 1 -0.121616 0.00618791 -0.0648119 0 -0.5 -6.98068 0.025 0 0 -1.60516 0.163625 
130 1 -0.0642546 0.000440704 -0.0115615 0 -0.5 -6.90544 0.015 0 0 -0.346714 0.0353429 
23 1 -0.134189 0.142519 -0.0128001 0 -0.5 -6.90721 0.025 0 0 -1.60516 0.163625 
150 1 -0.100106 -0.0227931 0.0194851 0 -0.5 -6.8612 0.015 0 0 -0.346714 0.0353429 
4 1 -0.0330873 0.220857 0.0201078 0 -0.5 -6.86032 0.025 0 0 -1.60516 0.163625 
31 1 -0.140814 -0.0571227 0.0394755 0 -0.5 -6.83255 0.025 0 0 -1.60516 0.163625 
18 1 -0.106015 0.207686 0.0211921 0 -0.5 -6.85875 0.025 0 0 -1.60516 0.163625 
106 1 -0.149058 0.336312 0.0380854 -0.0998962 -0.230395 -6.94129 0.015 0 0 -0.346714 0.0353429 
110 1 -0.0868918 -0.0675835 0.0754845 0 -0.5 -6.78066 0.015 0 0 -0.346714 0.0353429 
93 1 -0.0244706 -0.0558422 0.0936867 0 -0.5 -6.75427 0.015 0 0 -0.346714 0.0353429 
17 1 -0.134634 0.0580265 0.102863 0 -0.5 -6.74093 0.025 0 0 -1.60516 0.163625 
136 1 -0.0832352 0.151008 0.0984158 0 -0.5 -6.7474 0.015 0 0 -0.346714 0.0353429 
30 1 -0.0481876 0.178857 0.108997 0 -0.5 -6.732 0.025 0 0 -1.60516 0.163625 
109 1 -0.0676248 0.22608 0.107572 0 -0.5 -6.73406 0.015 0 0 -0.346714 0.0353429 
108 1 -0.089121 -0.0351765 0.164205 0 -0.5 -6.65107 0.015 0 0 -0.346714 0.0353429 
1 1 -0.151831 0.423206 0.143592 -0.021394 -0.0706631 -6.80625 0.025 0 0 -1.60516 0.163625 
69 1 -0.020474 -0.0149175 0.193698 0 -0.5 -6.60741 0.015 0 0 -0.346714 0.0353429 
149 1 -0.0235751 0.0818951 0.219667 0.199959 -0.45766 -6.74101 0.015 0 0 -0.346714 0.0353429 
35 1 -0.146938 0.158792 0.202472 0 -0.5 -6.59437 0.025 0 0 -1.60516 0.163625 
102 1 -0.11709 -0.0351005 0.243184 0 -0.5 -6.53354 0.015 0 0 -0.346714 0.0353429 
14 1 -0.0571303 -0.0430245 0.257331 0 -0.5 -6.51226 0.025 0 0 -1.60516 0.163625 
139 1 -0.104092 0.022572 0.242977 0 -0.5 -6.53384 0.015 0 0 -0.346714 0.0353429 
144 1 -0.0691235 0.0254741 0.241747 0 -0.5 -6.5357 0.015 0 0 -0.346714 0.0353429 
22 1 -0.102489 0.0903065 0.236314 0 -0.5 -6.54384 0.025 0 0 -1.60516 0.163625 
141 1 -0.136875 0.0382642 0.27663 0 -0.5 -6.48312 0.015 0 0 -0.346714 0.0353429 
55 1 -0.0960005 0.196402 0.263497 -7.52477e-06 -0.49998 -6.50297 0.015 0 0 -0.346714 0.0353429 
87 1 -0.113676 0.159588 0.314902 0 -0.5 -6.42495 0.015 0 0 -0.346714 0.0353429 
94 1 -0.271844 0.202312 0.308962 -0.356499 -0.190573 -6.49051 0.015 0 0 -0.346714 0.0353429 
21 1 -0.0470047 0.2415 0.295639 0 -0.5 -6.45428 0.025 0 0 -1.60516 0.163625 
107 1 -0.141609 -0.0460523 0.349267 0 -0.5 -6.37227 0.015 0 0 -0.346714 0.0353429 
112 1 -0.073338 0.0372787 0.383211 0 -0.5 -6.31978 0.015 0 0 -0.346714 0.0353429 
84 1 -0.116406 0.117786 0.378729 0 -0.5 -6.32675 0.015 0 0 -0.346714 0.0353429 
147 1 -0.100309 0.229431 0.369854 0 -0.5 -6.34048 0.015 0 0 -0.346714 0.0353429 
142 1 -0.0724928 -0.0212522 0.411302 0 -0.5 -6.27603 0.015 0 0 -0.346714 0.0353429 
47 1 -0.140465 0.20145 0.411427 0 -0.5 -6.27584 0.025 0 0 -1.60516 0.163625 
6 1 -0.0662322 0.0306308 0.440694 0.101461 -0.428163 -6.23521 0.025 0 0 -1.60516 0.163625 
80 1 -0.102893 0.164893 0.434589 0 -0.5 -6.23954 0.015 0 0 -0.346714 0.0353429 
145 1 -0.0934491 0.194113 0.414069 0 -0.5 -6.27172 0.015 0 0 -0.346714 0.0353429 
135 1 -0.140472 0.0468926 0.472141 0 -0.5 -6.18019 0.015 0 0 -0.346714 0.0353429 
62 1 -0.0849655 0.254406 0.471785 0 -0.5 -6.18078 0.015 0 0 -0.346714 0.0353429 
32 1 -0.175702 -0.0448695 0.475404 -0.0613285 -0.540948 -6.17227 0.025 0 0 -1.60516 0.163625 
138 1 -0.0317395 -0.0186844 0.496783 0 -0.5 -6.14095 0.015 0 0 -0.346714 0.0353429 
128 1 -0.145291 0.131677 0.498941 0 -0.5 -6.13751 0.015 0 0 -0.346714 0.0353429 
15 1 -0.074667 0.13709 0.485708 0.0430154 -0.390763 -6.12801 0.025 0 0 -1.60516 0.163625 
280 1 -0.0929865 0.438641 0.486801 -0.323138 -0.0374805 -6.24286 0.015 0 0 -0.346714 0.0353429 
121 1 -0.0679495 0.236078 0.52494 0 -0.5 -6.09582 0.015 0 0 -0.346714 0.0353429 
129 1 -0.0553418 0.00519941 0.57266 0 -0.5 -6.01852 0.015 0 0 -0.346714 0.0353429 
13 1 -0.146779 0.0878211 0.591645 0 -0.5 -5.98752 0.025 0 0 -1.60516 0.163625 
101 1 -0.102489 0.0978245 0.58636 0 -0.5 -5.99615 0.015 0 0 -0.346714 0.0353429 
37 1 -0.0716655 0.200665 0.58564 0 -0.5 -5.99733 0.025 0 0 -1.60516 0.163625 
46 1 -0.032303 0.262569 0.592418 0 -0.5 -5.98624 0.025 0 0 -1.60516 0.163625 
52 1 -0.100497 -0.00951049 0.617046 0 -0.5 -5.94573 0.015 0 0 -0.346714 0.0353429 
61 1 -0.0231802 -0.0250652 0.606338 0 -0.5 -5.96339 0.015 0 0 -0.346714 0.0353429 
79 1 -0.0179342 0.00898431 0.60645 0 -0.5 -5.96319 0.015 0 0 -0.346714 0.0353429 
91 1 -0.124131 0.194132 0.607048 0 -0.5 -5.96221 0.015 0 0 -0.346714 0.0353429 
5 1 -0.137704 0.0184118 0.630944 0 -0.5 -5.92277 0.025 0 0 -1.60516 0.163625 
7 1 -0.0712578 0.0574494 0.635264 0 -0.5 -5.91561 0.025 0 0 -1.60516 0.163625 
20 1 -0.124339 0.145888 0.626622 0 -0.5 -5.92994 0.025 0 0 -1.60516 0.163625 
86 1 -0.142939 0.187059 0.680751 0 -0.5 -5.83968 0.015 0 0 -0.346714 0.0353429 
9 1 -0.0320364 0.221159 0.685193 0 -0.5 -5.83223 0.025 0 0 -1.60516 0.163625 
58 1 -0.0969698 0.0918907 0.703218 0 -0.5 -5.80182 0.015 0 0 -0.346714 0.0353429 
124 1 -0.136447 0.217377 0.703052 0 -0.5 -5.80211 0.015 0 0 -0.346714 0.0353429 
65 1 -0.147981 -0.00490329 0.720981 0 -0.5 -5.7717 0.015 0 0 -0.346714 0.0353429 
41 1 -0.107908 0.272758 0.717641 0 -0.5 -5.77739 0.025 0 0 -1.60516 0.163625 
104 1 -0.138444 0.159217 0.769176 0 -0.5 -5.6892 0.015 0 0 -0.346714 0.0353429 
131 1 -0.025873 0.26004 0.756861 0 -0.5 -5.71039 0.015 0 0 -0.346714 0.0353429 
132 1 -0.0234712 0.0281681 0.793278 0 -0.5 -5.64751 0.015 0 0 -0.346714 0.0353429 
48 1 -0.144727 0.085852 0.79225 0 -0.5 -5.64927 0.025 0 0 -1.60516 0.163625 
53 1 -0.106432 0.13034 0.794972 0 -0.5 -5.64456 0.015 0 0 -0.346714 0.0353429 
49 1 -0.0613084 0.00571045 0.81858 0 -0.5 -5.60336 0.025 0 0 -1.60516 0.163625 
16 1 -0.129915 0.229079 0.822568 0 -0.5 -5.5964 0.025 0 0 -1.60516 0.163625 
82 1 -0.0851821 0.219627 0.830671 0 -0.5 -5.58217 0.015 0 0 -0.346714 0.0353429 
27 1 -0.0637137 0.255885 0.823397 0 -0.5 -5.59492 0.025 0 0 -1.60516 0.163625 
127 1 -0.0304133 0.0516212 0.86481 0 -0.5 -5.52184 0.015 0 0 -0.346714 0.0353429 
63 1 -0.147823 0.285713 0.84258 0 -0.5 -5.56118 0.015 0 0 -0.346714 0.0353429 
56 1 -0.11556 0.283119 0.864636 0 -0.5 -5.52213 0.015 0 0 -0.346714 0.0353429 
25 1 -0.104447 0.0397853 0.879193 0 -0.5 -5.49623 0.025 0 0 -1.60516 0.163625 
42 1 -0.132916 0.132796 0.897485 0 -0.5 -5.46347 0.025 0 0 -1.60516 0.163625 
123 1 -0.11925 0.189492 0.902123 0 -0.5 -5.45513 0.015 0 0 -0.346714 0.0353429 
64 1 -0.145219 0.253177 0.919692 0 -0.5 -5.42344 0.015 0 0 -0.346714 0.0353429 
125 1 -0.0960051 0.245127 0.922041 0 -0.5 -5.41923 0.015 0 0 -0.346714 0.0353429 
392 1 -0.0201822 0.00337663 0.94073 0 -0.5 -5.38528 0.015 0 0 -0.346714 0.0353429 
361 1 -0.0655065 0.0311594 0.937598 0 -0.5 -5.39097 0.015 0 0 -0.346714 0.0353429 
375 1 -0.132504 0.0682129 0.949433 0 -0.5 -5.36939 0.015 0 0 -0.346714 0.0353429 
391 1 -0.0665259 0.23019 0.939318 0 -0.5 -5.38783 0.015 0 0 -0.346714 0.0353429 
353 1 -0.0778865 0.0845101 0.973383 0 -0.5 -5.32544 0.015 0 0 -0.346714 0.0353429 
432 1 -0.110656 0.144023 0.988626 0 -0.5 -5.29729 0.015 0 0 -0.346714 0.0353429 
423 1 -0.035066 0.248352 0.98657 0 -0.5 -5.30111 0.015 0 0 -0.346714 0.0353429 
370 1 -0.0476722 0.302061 0.973349 0 -0.5 -5.32554 0.015 0 0 -0.346714 0.0353429 
449 1 -0.121601 0.00897023 1.00227 0 -0.5 -5.27198 0.015 0 0 -0.346714 0.0353429 
348 1 -0.0483506 0.0188696 1.02422 -0.0150753 -0.514502 -5.22783 0.025 0 0 -1.60516 0.163625 
409 1 -0.1116 0.116279 1.03252 0 -0.5 -5.21537 0.015 0 0 -0.346714 0.0353429 
434 1 -0.110177 0.276235 1.02986 0 -0.5 -5.22038 0.015 0 0 -0.346714 0.0353429 
304 1 -0.147639 0.242299 1.06199 0 -0.5 -5.15965 0.025 0 0 -1.60516 0.163625 
414 1 -0.12165 0.186412 1.09944 0 -0.5 -5.08794 0.015 0 0 -0.346714 0.0353429 
327 1 -0.047146 0.279396 1.09344 0 -0.5 -5.09952 0.025 0 0 -1.60516 0.163625 
368 1 -0.0426125 0.0541031 1.11911 0 -0.5 -5.04988 0.015 0 0 -0.346714 0.0353429 
328 1 -0.101567 0.0793596 1.13714 0 -0.5 -5.01476 0.025 0 0 -1.60516 0.163625 
416 1 -0.148865 0.207752 1.11335 0 -0.5 -5.06106 0.015 0 0 -0.346714 0.0353429 
342 1 -0.0942786 0.230007 1.13848 0 -0.5 -5.01211 0.025 0 0 -1.60516 0.163625 
422 1 -0.0856494 0.270628 1.1171 0 -0.5 -5.0538 0.015 0 0 -0.346714 0.0353429 
307 1 -0.141488 0.0483164 1.14989 0 -0.5 -4.98974 0.025 0 0 -1.60516 0.163625 
440 1 -0.074831 0.0306332 1.16471 0 -0.5 -4.96051 0.015 0 0 -0.346714 0.0353429 
441 1 -0.0895132 0.308957 1.15033 0 -0.5 -4.98886 0.015 0 0 -0.346714 0.0353429 
388 1 -0.0545692 0.0946855 1.19576 0 -0.5 -4.89871 0.015 0 0 -0.346714 0.0353429 
323 1 -0.131477 0.163813 1.19357 0 -0.5 -4.90312 0.025 0 0 -1.60516 0.163625 
352 1 -0.144025 0.267939 1.1767 0 -0.5 -4.93677 0.015 0 0 -0.346714 0.0353429 
330 1 -0.125578 0.324028 1.18157 0 -0.5 -4.92706 0.025 0 0 -1.60516 0.163625 
406 1 -0.0920408 0.267666 1.20496 0 -0.5 -4.88027 0.015 0 0 -0.346714 0.0353429 
418 1 -0.0554251 0.0409403 1.24896 0 -0.5 -4.79099 0.015 0 0 -0.346714 0.0353429 
395 1 -0.110093 0.0918721 1.25667 0 -0.5 -4.7752 0.015 0 0 -0.346714 0.0353429 
318 1 -0.126425 0.241158 1.24633 0 -0.5 -4.79639 0.025 0 0 -1.60516 0.163625 
336 1 -0.025747 0.274523 1.25571 0 -0.5 -4.77716 0.025 0 0 -1.60516 0.163625 
331 1 -0.138106 0.035831 1.26363 0 -0.5 -4.76088 0.025 0 0 -1.60516 0.163625 
313 1 -0.0392615 0.0796895 1.27835 0 -0.5 -4.73047 0.025 0 0 -1.60516 0.163625 
374 1 -0.133879 0.301467 1.28093 0 -0.5 -4.72507 0.015 0 0 -0.346714 0.0353429 
315 1 -0.0970947 0.146406 1.30434 0 -0.5 -4.67622 0.025 0 0 -1.60516 0.163625 
445 1 -0.0938501 0.216643 1.32158 0 -0.5 -4.63992 0.015 0 0 -0.346714 0.0353429 
407 1 -0.0713596 0.274089 1.30594 0 -0.5 -4.67288 0.015 0 0 -0.346714 0.0353429 
310 1 -0.0919271 0.311993 1.30112 0 -0.5 -4.68299 0.025 0 0 -1.60516 0.163625 
377 1 -0.128279 0.0637203 1.34747 0 -0.5 -4.58489 0.015 0 0 -0.346714 0.0353429 
386 1 -0.118095 0.28511 1.34305 0 -0.5 -4.5943 0.015 0 0 -0.346714 0.0353429 
401 1 -0.0913429 0.0927804 1.38405 0 -0.5 -4.50592 0.015 0 0 -0.346714 0.0353429 
439 1 -0.132801 0.179897 1.38071 0 -0.5 -4.51317 0.015 0 0 -0.346714 0.0353429 
344 1 -0.147144 0.217445 1.36535 0 -0.5 -4.54643 0.025 0 0 -1.60516 0.163625 
302 1 -0.0567477 0.0613163 1.38625 0 -0.5 -4.50111 0.025 0 0 -1.60516 0.163625 
314 1 -0.136534 0.129236 1.39622 0 -0.5 -4.47933 0.025 0 0 -1.60516 0.163625 
413 1 -0.0512121 0.278816 1.41294 0 -0.5 -4.44254 0.015 0 0 -0.346714 0.0353429 
442 1 -0.149932 0.338171 1.41442 0 -0.5 -4.43931 0.015 0 0 -0.346714 0.0353429 
431 1 -0.13363 0.0896506 1.42786 0 -0.5 -4.40948 0.015 0 0 -0.346714 0.0353429 
355 1 -0.0483468 0.108759 1.41978 0 -0.5 -4.42744 0.015 0 0 -0.346714 0.0353429 
354 1 -0.0927402 0.277498 1.4261 0 -0.5 -4.41341 0.015 0 0 -0.346714 0.0353429 
408 1 -0.087028 0.346439 1.42447 0 -0.5 -4.41704 0.015 0 0 -0.346714 0.0353429 
382 1 -0.105731 0.367311 1.44401 0.026541 -0.439017 -4.45263 0.015 0 0 -0.346714 0.0353429 
446 1 -0.116317 0.246626 1.45157 0 -0.5 -4.35641 0.015 0 0 -0.346714 0.0353429 
411 1 -0.0485728 0.329056 1.46032 0 -0.5 -4.33669 0.015 0 0 -0.346714 0.0353429 
399 1 -0.074527 0.112048 1.49775 0 -0.5 -4.25115 0.015 0 0 -0.346714 0.0353429 
436 1 -0.0854574 0.166951 1.49703 0 -0.5 -4.25282 0.015 0 0 -0.346714 0.0353429 
341 1 -0.148816 0.280228 1.50001 0 -0.5 -4.24595 0.025 0 0 -1.60516 0.163625 
389 1 -0.0230912 0.353676 1.50129 0 -0.5 -4.24301 0.015 0 0 -0.346714 0.0353429 
427 1 -0.0959473 0.410336 1.4759 0.0988458 -0.172977 -4.48986 0.015 0 0 -0.346714 0.0353429 
324 1 -0.0498553 0.0667032 1.52129 0 -0.5 -4.19651 0.025 0 0 -1.60516 0.163625 
350 1 -0.147794 0.0993949 1.51055 0 -0.5 -4.22152 0.025 0 0 -1.60516 0.163625 
437 1 -0.0723044 0.143232 1.52954 0 -0.5 -4.17718 0.015 0 0 -0.346714 0.0353429 
335 1 -0.126459 0.160418 1.51031 0 -0.5 -4.22211 0.025 0 0 -1.60516 0.163625 
385 1 -0.0696212 0.289365 1.51772 0 -0.5 -4.20485 0.015 0 0 -0.346714 0.0353429 
384 1 -0.17235 0.371979 1.51295 -0.135564 -0.440896 -4.23595 0.015 0 0 -0.346714 0.0353429 
394 1 -0.145405 0.318684 1.55553 0 -0.5 -4.11567 0.015 0 0 -0.346714 0.0353429 
358 1 -0.127277 0.0907924 1.58337 0 -0.5 -4.04877 0.015 0 0 -0.346714 0.0353429 
367 1 -0.106717 0.123831 1.56791 0 -0.5 -4.08605 0.015 0 0 -0.346714 0.0353429 
326 1 -0.145564 0.220454 1.58524 0 -0.5 -4.04426 0.025 0 0 -1.60516 0.163625 
424 1 -0.132731 0.349164 1.57537 -0.0730123 -0.390635 -4.0773 0.015 0 0 -0.346714 0.0353429 
426 1 -0.0179373 0.348964 1.56747 0 -0.5 -4.08713 0.015 0 0 -0.346714 0.0353429 
319 1 -0.0687817 0.370025 1.58049 0 -0.5 -4.05573 0.025 0 0 -1.60516 0.163625 
376 1 -0.0824761 0.135772 1.60537 0 -0.5 -3.99511 0.015 0 0 -0.346714 0.0353429 
433 1 -0.118613 0.0766652 1.63188 0 -0.5 -3.92948 0.015 0 0 -0.346714 0.0353429 
420 1 -0.037203 0.0848256 1.63573 0 -0.5 -3.91987 0.015 0 0 -0.346714 0.0353429 
402 1 -0.101682 0.120287 1.63945 0 -0.5 -3.91055 0.015 0 0 -0.346714 0.0353429 
306 1 -0.116739 0.298034 1.63823 0 -0.5 -3.91359 0.025 0 0 -1.60516 0.163625 
412 1 -0.0937388 0.368584 1.64429 0 -0.5 -3.89838 0.015 0 0 -0.346714 0.0353429 
363 1 -0.0911777 0.197327 1.66354 0 -0.5 -3.84963 0.015 0 0 -0.346714 0.0353429 
360 1 -0.116599 0.221221 1.66185 0 -0.5 -3.85394 0.015 0 0 -0.346714 0.0353429 
397 1 -0.0557758 0.309618 1.66745 0 -0.5 -3.83962 0.015 0 0 -0.346714 0.0353429 
371 1 -0.0449321 0.348104 1.66011 0 -0.5 -3.85836 0.015 0 0 -0.346714 0.0353429 
322 1 -0.131733 0.107564 1.69516 0 -0.5 -3.7682 0.025 0 0 -1.60516 0.163625 
373 1 -0.136858 0.254184 1.7044 0 -0.5 -3.74407 0.015 0 0 -0.346714 0.0353429 
396 1 -0.0958984 0.27466 1.69727 0 -0.5 -3.76271 0.015 0 0 -0.346714 0.0353429 
369 1 -0.138958 0.312563 1.70724 0 -0.5 -3.73662 0.015 0 0 -0.346714 0.0353429 
381 1 -0.0827007 0.343114 1.69173 0 -0.5 -3.77713 0.015 0 0 -0.346714 0.0353429 
383 1 -0.0262689 0.330803 1.70833 0 -0.5 -3.73377 0.015 0 0 -0.346714 0.0353429 
308 1 -0.0783935 0.123375 1.73075 -0.0168546 -0.516386 -3.67257 0.025 0 0 -1.60516 0.163625 
438 1 -0.0987495 0.206333 1.73198 0 -0.5 -3.67108 0.015 0 0 -0.346714 0.0353429 
356 1 -0.111476 0.249564 1.73904 0 -0.5 -3.65215 0.015 0 0 -0.346714 0.0353429 
340 1 -0.149237 0.377237 1.73854 0 -0.5 -3.65352 0.025 0 0 -1.60516 0.163625 
415 1 -0.127182 0.15813 1.7526 0 -0.5 -3.61556 0.015 0 0 -0.346714 0.0353429 
343 1 -0.140775 0.216899 1.75971 0 -0.5 -3.59623 0.025 0 0 -1.60516 0.163625 
443 1 -0.0906469 0.304658 1.75057 0 -0.5 -3.62105 0.015 0 0 -0.346714 0.0353429 
349 1 -0.116564 0.336594 1.76369 0 -0.5 -3.58535 0.025 0 0 -1.60516 0.163625 
351 1 -0.0409452 0.335112 1.76834 0 -0.5 -3.57259 0.015 0 0 -0.346714 0.0353429 
390 1 -0.0988461 0.11859 1.79005 0 -0.5 -3.51246 0.015 0 0 -0.346714 0.0353429 
448 1 -0.0329565 0.12757 1.81212 0 -0.5 -3.45026 0.015 0 0 -0.346714 0.0353429 
347 1 -0.0548177 0.16489 1.81784 0 -0.5 -3.43398 0.025 0 0 -1.60516 0.163625 
362 1 -0.0154426 0.159609 1.83958 0 -0.5 -3.37129 0.015 0 0 -0.346714 0.0353429 
378 1 -0.121409 0.213198 1.82452 0 -0.5 -3.41485 0.015 0 0 -0.346714 0.0353429 
312 1 -0.134707 0.272718 1.82562 0 -0.5 -3.41171 0.025 0 0 -1.60516 0.163625 
359 1 -0.107325 0.317399 1.83296 0 -0.5 -3.39052 0.015 0 0 -0.346714 0.0353429 
303 1 -0.0551599 0.336479 1.84 0 -0.5 -3.37011 0.025 0 0 -1.60516 0.163625 
417 1 -0.0160313 0.372054 1.82561 0 -0.5 -3.41171 0.015 0 0 -0.346714 0.0353429 
346 1 -0.152007 0.416834 1.823 -0.0151472 -0.325165 -3.47014 0.025 0 0 -1.60516 0.163625 
419 1 -0.111609 0.109519 1.84242 0 -0.5 -3.36305 0.015 0 0 -0.346714 0.0353429 
421 1 -0.0930175 0.189542 1.8564 0 -0.5 -3.32204 0.015 0 0 -0.346714 0.0353429 
334 1 -0.103439 0.372448 1.85043 0 -0.5 -3.3396 0.025 0 0 -1.60516 0.163625 
325 1 -0.117824 0.233025 1.89257 0 -0.5 -3.21345 0.025 0 0 -1.60516 0.163625 
365 1 -0.142652 0.314124 1.88566 0.0322739 -0.84426 -3.13486 0.015 0 0 -0.346714 0.0353429 
309 1 -0.144284 0.148031 1.92178 0 -0.5 -3.123 0.025 0 0 -1.60516 0.163625 
320 1 -0.0648735 0.148929 1.9066 0 -0.5 -3.17028 0.025 0 0 -1.60516 0.163625 
430 1 -0.123083 0.195393 1.93198 0 -0.5 -3.09072 0.015 0 0 -0.346714 0.0353429 
387 1 -0.0901615 0.310452 1.92509 0 -0.5 -3.1126 0.015 0 0 -0.346714 0.0353429 
372 1 -0.0702168 0.332237 1.91192 0 -0.5 -3.1538 0.015 0 0 -0.346714 0.0353429 
447 1 -0.122284 0.413789 1.90747 0 -0.5 -3.16764 0.015 0 0 -0.346714 0.0353429 
338 1 -0.0583644 0.401556 1.92364 0 -0.5 -3.11711 0.025 0 0 -1.60516 0.163625 
379 1 -0.0327871 0.150329 1.94945 0 -0.5 -3.03481 0.015 0 0 -0.346714 0.0353429 
403 1 -0.0833248 0.201397 1.93499 0 -0.5 -3.08121 0.015 0 0 -0.346714 0.0353429 
393 1 -0.015571 0.372279 1.94584 0 -0.5 -3.04648 0.015 0 0 -0.346714 0.0353429 
316 1 -0.0983119 0.134111 1.9828 0 -0.5 -2.92503 0.025 0 0 -1.60516 0.163625 
357 1 -0.0584785 0.199214 1.97669 0 -0.5 -2.94544 0.015 0 0 -0.346714 0.0353429 
380 1 -0.127355 0.309976 1.98993 0 -0.5 -2.901 0.015 0 0 -0.346714 0.0353429 
301 1 -0.0873038 0.373225 1.98418 0.012148 -0.512208 -2.92041 0.025 0 0 -1.60516 0.163625 
428 1 -0.0387226 0.384002 1.98893 0 -0.5 -2.90443 0.015 0 0 -0.346714 0.0353429 
329 1 -0.124753 0.410978 1.9805 -0.0138001 -0.485947 -2.93282 0.025 0 0 -1.60516 0.163625 
450 1 -0.0322061 0.428898 1.99013 0 -0.5 -2.90031 0.015 0 0 -0.346714 0.0353429 
364 1 -0.0453235 0.164807 1.99468 0 -0.5 -2.88491 0.015 0 0 -0.346714 0.0353429 
321 1 -0.126579 0.205251 1.99565 0 -0.5 -2.88158 0.025 0 0 -1.60516 0.163625 
410 1 -0.145474 0.254536 2.00009 0 -0.5 -2.86647 0.015 0 0 -0.346714 0.0353429 
333 1 -0.0978849 0.267337 1.9966 0 -0.5 -2.87834 0.025 0 0 -1.60516 0.163625 
337 1 -0.142368 0.350838 2.0108 0 -0.5 -2.82958 0.025 0 0 -1.60516 0.163625 
332 1 -0.0814262 0.196266 2.04852 0 -0.5 -2.69558 0.025 0 0 -1.60516 0.163625 
400 1 -0.135353 0.239905 2.05206 0 -0.5 -2.68273 0.015 0 0 -0.346714 0.0353429 
425 1 -0.074083 0.142787 2.06223 0 -0.5 -2.64525 0.015 0 0 -0.346714 0.0353429 
404 1 -0.119976 0.163844 2.083 0 -0.5 -2.56707 0.015 0 0 -0.346714 0.0353429 
311 1 -0.0354402 0.158368 2.07236 0 -0.5 -2.60739 0.025 0 0 -1.60516 0.163625 
345 1 -0.128178 0.206674 2.07975 0 -0.5 -2.57943 0.025 0 0 -1.60516 0.163625 
435 1 -0.0960728 0.243976 2.08342 0 -0.5 -2.5655 0.015 0 0 -0.346714 0.0353429 
317 1 -0.129905 0.282055 2.06907 0 -0.5 -2.61975 0.025 0 0 -1.60516 0.163625 
366 1 -0.144217 0.359022 2.06679 0 -0.5 -2.62828 0.015 0 0 -0.346714 0.0353429 
339 1 -0.0802774 0.40466 2.06173 0 -0.5 -2.64712 0.025 0 0 -1.60516 0.163625 
405 1 -0.038992 0.39339 2.0722 0 -0.5 -2.60797 0.015 0 0 -0.346714 0.0353429 
305 1 -0.0452536 0.441472 2.06223 0 -0.5 -2.64525 0.025 0 0 -1.60516 0.163625 
544 1 -0.002968 0.465736 2.06849 -0.39021 -0.130746 -2.72869 0.015 0 0 -0.346714 0.0353429 
444 1 -0.0159467 0.439826 2.09848 0 -0.5 -2.50723 0.015 0 0 -0.346714 0.0353429 
714 1 -0.0240605 0.208326 2.11681 0 -0.5 -2.43444 0.015 0 0 -0.346714 0.0353429 
676 1 -0.132839 0.235867 2.12583 0 -0.5 -2.39784 0.015 0 0 -0.346714 0.0353429 
652 1 -0.0683105 0.240338 2.13415 0 -0.5 -2.36351 0.015 0 0 -0.346714 0.0353429 
629 1 -0.113195 0.287381 2.14074 0 -0.5 -2.33604 0.025 0 0 -1.60516 0.163625 
675 1 -0.130158 0.393231 2.11965 -0.0349785 -0.349711 -2.56232 0.015 0 0 -0.346714 0.0353429 
690 1 -0.0634806 0.406565 2.1203 0 -0.5 -2.42031 0.015 0 0 -0.346714 0.0353429 
669 1 -0.0318411 0.417893 2.1361 0 -0.5 -2.35547 0.015 0 0 -0.346714 0.0353429 
634 1 -0.102181 0.428021 2.1215 0 -0.5 -2.4155 0.025 0 0 -1.60516 0.163625 
608 1 -0.0938106 0.176793 2.15642 0 -0.5 -2.26924 0.025 0 0 -1.60516 0.163625 
682 1 -0.0469368 0.172781 2.16082 0 -0.5 -2.25011 0.015 0 0 -0.346714 0.0353429 
657 1 -0.0480729 0.210927 2.16569 0 -0.5 -2.22882 0.015 0 0 -0.346714 0.0353429 
735 1 -0.0832421 0.254669 2.17393 0 -0.5 -2.19223 0.015 0 0 -0.346714 0.0353429 
606 1 -0.122877 0.363631 2.1576 0.00210743 -0.508228 -2.25637 0.025 0 0 -1.60516 0.163625 
708 1 -0.0786991 0.401401 2.15743 0 -0.5 -2.26482 0.015 0 0 -0.346714 0.0353429 
660 1 -0.0183143 0.414377 2.16752 0 -0.5 -2.22068 0.015 0 0 -0.346714 0.0353429 
701 1 -0.0870486 0.459674 2.15926 0 -0.5 -2.25687 0.015 0 0 -0.346714 0.0353429 
707 1 -0.0900659 0.203989 2.20376 0 -0.5 -2.0544 0.015 0 0 -0.346714 0.0353429 
618 1 -0.13283 0.221164 2.19583 0 -0.5 -2.09187 0.025 0 0 -1.60516 0.163625 
709 1 -0.101732 0.303531 2.19158 0 -0.5 -2.11178 0.015 0 0 -0.346714 0.0353429 
649 1 -0.129761 0.337177 2.20434 0 -0.5 -2.05165 0.025 0 0 -1.60516 0.163625 
750 1 -0.0862874 0.368179 2.19686 0 -0.5 -2.08706 0.015 0 0 -0.346714 0.0353429 
677 1 -0.113879 0.190408 2.23059 -0 0 -2 0.015 0 0 0 0.0353429 
640 1 -0.0489559 0.223297 2.21589 -0 0 -2 0.025 0 0 0 0.163625 
680 1 -0.0791761 0.258881 2.21057 0 -0.5 -2.02163 0.015 0 0 -0.346714 0.0353429 
616 1 -0.140255 0.428954 2.21625 -0 0 -2 0.025 0 0 0 0.163625 
725 1 -0.0732043 0.428899 2.22586 -0 0 -2 0.015 0 0 0 0.0353429 
712 1 -0.0372677 0.47295 2.22142 -0 0 -2 0.015 0 0 0 0.0353429 
692 1 -0.0389882 0.23636 2.26584 -0 0 -2 0.015 0 0 0 0.0353429 
736 1 -0.0864872 0.278273 2.2531 -0 0 -2 0.015 0 0 0 0.0353429 
744 1 -0.107021 0.37483 2.2386 -0 0 -2 0.015 0 0 0 0.0353429 
722 1 -0.124711 0.413708 2.26588 -0 0 -2 0.015 0 0 0 0.0353429 
685 1 -0.0969629 0.419298 2.24862 -0 0 -2 0.015 0 0 0 0.0353429 
674 1 -0.11657 0.471494 2.2632 -0 0 -2 0.015 0 0 0 0.0353429 
699 1 -0.0856858 0.473675 2.26199 -0 0 -2 0.015 0 0 0 0.0353429 
748 1 -0.0192599 0.200066 2.28207 -0 0 -2 0.015 0 0 0 0.0353429 
610 1 -0.108705 0.213129 2.27269 -0 0 -2 0.025 0 0 0 0.163625 
625 1 -0.115962 0.283889 2.28387 -0 0 -2 0.025 0 0 0 0.163625 
678 1 -0.0973357 0.337318 2.29466 -0 0 -2 0.015 0 0 0 0.0353429 
636 1 -0.149776 0.383946 2.28912 -0 0 -2 0.025 0 0 0 0.163625 
683 1 -0.0829948 0.413557 2.27516 -0 0 -2 0.015 0 0 0 0.0353429 
732 1 -0.0691875 0.449832 2.27826 -0 0 -2 0.015 0 0 0 0.0353429 
620 1 -0.0294016 0.445755 2.27102 -0 0 -2 0.025 0 0 0 0.163625 
705 1 -0.0946775 0.182879 2.3046 -0 0 -2 0.015 0 0 0 0.0353429 
637 1 -0.0618774 0.209032 2.32615 -0 0 -2 0.025 0 0 0 0.163625 
730 1 -0.0250727 0.190561 2.32176 -0 0 -2 0.015 0 0 0 0.0353429 
729 1 -0.0894542 0.239788 2.32748 -0 0 -2 0.015 0 0 0 0.0353429 
641 1 -0.143995 0.248499 2.30914 -0 0 -2 0.025 0 0 0 0.163625 
694 1 -0.138308 0.343846 2.31655 -0 0 -2 0.015 0 0 0 0.0353429 
733 1 -0.0833844 0.376757 2.31708 -0 0 -2 0.015 0 0 0 0.0353429 
698 1 -0.111785 0.421731 2.31055 -0 0 -2 0.015 0 0 0 0.0353429 
696 1 -0.058387 0.410183 2.30164 -0 0 -2 0.015 0 0 0 0.0353429 
648 1 -0.130879 0.464062 2.30615 -0 0 -2 0.025 0 0 0 0.163625 
644 1 -0.140738 0.186408 2.33058 -0 0 -2 0.025 0 0 0 0.163625 
684 1 -0.0877228 0.214649 2.35838 -0 0 -2 0.015 0 0 0 0.0353429 
724 1 -0.0903421 0.274729 2.33614 -0 0 -2 0.015 0 0 0 0.0353429 
745 1 -0.114925 0.311202 2.34556 -0 0 -2 0.015 0 0 0 0.0353429 
628 1 -0.0865924 0.407234 2.34401 -0 0 -2 0.025 0 0 0 0.163625 
639 1 -0.0758688 0.455316 2.33346 -0 0 -2 0.025 0 0 0 0.163625 
679 1 -0.13837 0.180668 2.37296 -0 0 -2 0.015 0 0 0 0.0353429 
691 1 -0.0734004 0.189006 2.3811 -0 0 -2 0.015 0 0 0 0.0353429 
706 1 -0.129002 0.229476 2.37681 -0 0 -2 0.015 0 0 0 0.0353429 
633 1 -0.0885839 0.256976 2.38802 -0 0 -2 0.025 0 0 0 0.163625 
627 1 -0.14504 0.290308 2.36397 -0 0 -2 0.025 0 0 0 0.163625 
603 1 -0.121744 0.345667 2.36885 -0 0 -2 0.025 0 0 0 0.163625 
702 1 -0.149858 0.401742 2.37521 -0 0 -2 0.015 0 0 0 0.0353429 
695 1 -0.0580393 0.404144 2.37955 -0 0 -2 0.015 0 0 0 0.0353429 
673 1 -0.0172558 0.429744 2.38568 -0 0 -2 0.015 0 0 0 0.0353429 
635 1 -0.142362 0.4734 2.37318 -0 0 -2 0.025 0 0 0 0.163625 
703 1 -0.0877381 0.462891 2.37249 -0 0 -2 0.015 0 0 0 0.0353429 
728 1 -0.112468 0.204973 2.41041 -0 0 -2 0.015 0 0 0 0.0353429 
740 1 -0.0241674 0.189645 2.39676 -0 0 -2 0.015 0 0 0 0.0353429 
704 1 -0.0317726 0.220718 2.40044 -0 0 -2 0.015 0 0 0 0.0353429 
741 1 -0.142229 0.250235 2.39547 -0 0 -2 0.015 0 0 0 0.0353429 
617 1 -0.113434 0.299985 2.41531 -0 0 -2 0.025 0 0 0 0.163625 