ITEM: TIMESTEP
98400
ITEM: NUMBER OF ATOMS
1200
ITEM: BOX BOUNDS mm mm mm
-1 1
-1 1
-4.75711 2.85
ITEM: ATOMS id type x y z vx vy vz radius fx fy fz mass 
68 1 -0.0997213 -0.246729 -4.39799 0 -0.5 -11.5649 0.015 0 0 -0.346714 0.0353429 
137 1 -0.0942891 -0.186914 -4.37051 -0.00924354 -0.479856 -11.542 0.015 0 0 -0.346714 0.0353429 
45 1 -0.0943793 -0.295762 -4.33822 0 -0.5 -11.5141 0.025 0 0 -1.60516 0.163625 
33 1 -0.129286 -0.0553953 -4.35101 0 -0.5 -11.525 0.025 0 0 -1.60516 0.163625 
122 1 -0.0650258 -0.250002 -4.33679 0.00811842 -0.517403 -11.5125 0.015 0 0 -0.346714 0.0353429 
43 1 -0.116198 -0.144215 -4.29385 0 -0.5 -11.4762 0.025 0 0 -1.60516 0.163625 
111 1 -0.0487783 -0.0119 -4.29259 0 -0.5 -11.4751 0.015 0 0 -0.346714 0.0353429 
119 1 -0.0370509 -0.306811 -4.27629 0 -0.5 -11.4612 0.015 0 0 -0.346714 0.0353429 
78 1 -0.0422369 -0.0480449 -4.25992 0 -0.5 -11.4472 0.015 0 0 -0.346714 0.0353429 
75 1 -0.0493142 -0.256328 -4.23979 0 -0.5 -11.4299 0.015 0 0 -0.346714 0.0353429 
89 1 -0.129145 -0.227692 -4.2263 0 -0.5 -11.4183 0.015 0 0 -0.346714 0.0353429 
220 1 -0.0239756 -0.326196 -4.19128 -0.0669262 -0.554313 -11.3847 0.015 0 0 -0.346714 0.0353429 
59 1 -0.0865612 -0.0991322 -4.19642 0 -0.5 -11.3926 0.015 0 0 -0.346714 0.0353429 
92 1 -0.131017 -0.00467282 -4.16478 0 -0.5 -11.3654 0.015 0 0 -0.346714 0.0353429 
98 1 -0.147127 -0.155558 -4.04746 0 -0.5 -11.2636 0.015 0 0 -0.346714 0.0353429 
151 1 -0.0686397 -0.073473 -4.04869 0 -0.5 -11.2647 0.015 0 0 -0.346714 0.0353429 
8 1 -0.104188 -0.288537 -4.01192 0 -0.5 -11.2326 0.025 0 0 -1.60516 0.163625 
3 1 -0.141317 -0.0906121 -3.99563 0 -0.5 -11.2184 0.025 0 0 -1.60516 0.163625 
72 1 -0.105673 -0.053204 -3.96751 0 -0.5 -11.1938 0.015 0 0 -0.346714 0.0353429 
100 1 -0.0681017 -0.220079 -3.92693 0 -0.5 -11.1582 0.015 0 0 -0.346714 0.0353429 
140 1 -0.125739 -0.178444 -3.93709 0 -0.5 -11.1671 0.015 0 0 -0.346714 0.0353429 
40 1 -0.104474 -0.00180176 -3.93475 0 -0.5 -11.165 0.025 0 0 -1.60516 0.163625 
148 1 -0.263967 -0.0851377 -3.88894 -0.171679 -0.397353 -11.1704 0.015 0 0 -0.346714 0.0353429 
118 1 -0.0372647 -0.0183189 -3.91623 0 -0.5 -11.1488 0.015 0 0 -0.346714 0.0353429 
117 1 -0.0596227 -0.276979 -3.88483 0 -0.5 -11.1211 0.015 0 0 -0.346714 0.0353429 
51 1 -0.17317 -0.273551 -3.82985 -0.0265052 -0.519812 -11.0692 0.025 0 0 -1.60516 0.163625 
282 1 -0.141808 -0.298512 -3.81532 -0.2609 -0.673185 -11.049 0.015 0 0 -0.346714 0.0353429 
11 1 -0.0867894 -0.0852264 -3.74597 0.022917 -0.457889 -11.0079 0.025 0 0 -1.60516 0.163625 
90 1 -0.146535 -0.000333087 -3.76518 0 -0.5 -11.015 0.015 0 0 -0.346714 0.0353429 
60 1 -0.0770515 -0.268072 -3.72451 0 -0.5 -10.9787 0.015 0 0 -0.346714 0.0353429 
50 1 -0.130982 -0.0436451 -3.72154 0 -0.5 -10.9761 0.025 0 0 -1.60516 0.163625 
74 1 -0.0790012 -0.0561066 -3.65443 0 -0.5 -10.916 0.015 0 0 -0.346714 0.0353429 
105 1 -0.370594 -0.0438501 -3.63376 -0.321192 -0.368687 -10.8916 0.015 0 0 -0.346714 0.0353429 
76 1 -0.0202065 -0.02793 -3.6238 0 -0.5 -10.8884 0.015 0 0 -0.346714 0.0353429 
44 1 -0.125916 -0.276403 -3.60335 0 -0.5 -10.87 0.025 0 0 -1.60516 0.163625 
36 1 -0.103411 -0.229688 -3.5619 0 -0.5 -10.8325 0.025 0 0 -1.60516 0.163625 
29 1 -0.0788351 -0.0138179 -3.5735 0 -0.5 -10.843 0.025 0 0 -1.60516 0.163625 
54 1 -0.210908 -0.211169 -3.51342 -0.0956439 -0.529683 -10.7812 0.015 0 0 -0.346714 0.0353429 
114 1 -0.0722484 -0.19936 -3.49334 -0.00040144 -0.499666 -10.7703 0.015 0 0 -0.346714 0.0353429 
73 1 -0.0639552 -0.250233 -3.43464 0 -0.5 -10.7166 0.015 0 0 -0.346714 0.0353429 
113 1 -0.118506 0.0211977 -3.44698 0 -0.5 -10.7279 0.015 0 0 -0.346714 0.0353429 
2 1 -0.110349 -0.102929 -3.42351 0 -0.5 -10.7064 0.025 0 0 -1.60516 0.163625 
146 1 -0.109965 -0.263084 -3.39112 0 -0.5 -10.6767 0.015 0 0 -0.346714 0.0353429 
12 1 -0.0363281 0.00633589 -3.39409 0 -0.5 -10.6794 0.025 0 0 -1.60516 0.163625 
88 1 -0.0666498 -0.0360815 -3.35965 0 -0.5 -10.6478 0.015 0 0 -0.346714 0.0353429 
57 1 -0.120673 -0.146939 -3.33828 0 -0.5 -10.628 0.015 0 0 -0.346714 0.0353429 
10 1 -0.0405987 0.0257711 -3.32612 0.0635655 -0.375939 -10.6617 0.025 0 0 -1.60516 0.163625 
99 1 -0.146283 -0.198483 -3.31332 0 -0.5 -10.605 0.015 0 0 -0.346714 0.0353429 
34 1 -0.138562 -0.029489 -3.25557 0 -0.5 -10.5514 0.025 0 0 -1.60516 0.163625 
19 1 -0.0715757 -0.188748 -3.23681 0 -0.5 -10.534 0.025 0 0 -1.60516 0.163625 
66 1 -0.0281121 -0.211177 -3.22891 0 -0.5 -10.5266 0.015 0 0 -0.346714 0.0353429 
83 1 -0.108229 -0.168854 -3.24428 0 -0.5 -10.5409 0.015 0 0 -0.346714 0.0353429 
71 1 -0.145263 0.0141975 -3.21238 0 -0.5 -10.5112 0.015 0 0 -0.346714 0.0353429 
81 1 -0.00501019 0.00913893 -3.19375 0.07636 -0.438847 -10.4741 0.015 0 0 -0.346714 0.0353429 
67 1 -0.0183057 -0.255611 -3.17703 0 -0.5 -10.4781 0.015 0 0 -0.346714 0.0353429 
24 1 -0.138394 -0.228548 -3.15159 0 -0.5 -10.4543 0.025 0 0 -1.60516 0.163625 
133 1 -0.127566 -0.112056 -3.13362 0 -0.5 -10.4374 0.015 0 0 -0.346714 0.0353429 
95 1 -0.10482 -0.0246878 -3.12643 0 -0.5 -10.4307 0.015 0 0 -0.346714 0.0353429 
39 1 -0.0696793 0.02501 -3.12621 0 -0.5 -10.4305 0.025 0 0 -1.60516 0.163625 
103 1 -0.135939 -0.184278 -3.07564 0 -0.5 -10.3828 0.015 0 0 -0.346714 0.0353429 
70 1 -0.107191 -0.202076 -3.05045 0 -0.5 -10.359 0.015 0 0 -0.346714 0.0353429 
143 1 -0.11631 0.0336819 -3.05769 0 -0.5 -10.3658 0.015 0 0 -0.346714 0.0353429 
97 1 -0.0338223 -0.198856 -3.01724 0 -0.5 -10.3275 0.015 0 0 -0.346714 0.0353429 
115 1 -0.076478 -0.163569 -3.0164 0 -0.5 -10.3267 0.015 0 0 -0.346714 0.0353429 
28 1 -0.0685748 -0.22593 -2.99866 0 -0.5 -10.3098 0.025 0 0 -1.60516 0.163625 
85 1 -0.13789 -0.0419848 -3.01145 0 -0.5 -10.322 0.015 0 0 -0.346714 0.0353429 
134 1 -0.137197 -0.00163341 -2.97838 0 -0.5 -10.2905 0.015 0 0 -0.346714 0.0353429 
77 1 -0.0297287 0.0267485 -2.96388 0 -0.5 -10.2766 0.015 0 0 -0.346714 0.0353429 
120 1 -0.148569 0.0472607 -2.95976 0 -0.5 -10.2727 0.015 0 0 -0.346714 0.0353429 
96 1 -0.131998 -0.198919 -2.92397 0 -0.5 -10.2385 0.015 0 0 -0.346714 0.0353429 
126 1 -0.135614 -0.134708 -2.94373 -0.0288748 -0.539424 -10.2453 0.015 0 0 -0.346714 0.0353429 
38 1 -0.121616 -0.157812 -2.88218 0 -0.5 -10.1984 0.025 0 0 -1.60516 0.163625 
130 1 -0.0642546 -0.163559 -2.80425 0 -0.5 -10.1231 0.015 0 0 -0.346714 0.0353429 
23 1 -0.134189 -0.021481 -2.80606 0 -0.5 -10.1249 0.025 0 0 -1.60516 0.163625 
150 1 -0.100106 -0.186793 -2.75869 0 -0.5 -10.0789 0.015 0 0 -0.346714 0.0353429 
18 1 -0.106015 0.043686 -2.75618 0 -0.5 -10.0764 0.025 0 0 -1.60516 0.163625 
4 1 -0.0330873 0.0568569 -2.75778 0 -0.5 -10.078 0.025 0 0 -1.60516 0.163625 
106 1 -0.181824 0.260742 -2.76636 -0.0998962 -0.230395 -10.159 0.015 0 0 -0.346714 0.0353429 
31 1 -0.140814 -0.221123 -2.7293 0 -0.5 -10.0502 0.025 0 0 -1.60516 0.163625 
110 1 -0.0868918 -0.231583 -2.67627 0 -0.5 -9.99834 0.015 0 0 -0.346714 0.0353429 
93 1 -0.0244706 -0.219842 -2.64941 0 -0.5 -9.97195 0.015 0 0 -0.346714 0.0353429 
17 1 -0.134634 -0.105973 -2.63586 0 -0.5 -9.95861 0.025 0 0 -1.60516 0.163625 
136 1 -0.0832352 -0.0129924 -2.64243 0 -0.5 -9.96508 0.015 0 0 -0.346714 0.0353429 
30 1 -0.0481876 0.0148572 -2.6268 0 -0.5 -9.94968 0.025 0 0 -1.60516 0.163625 
109 1 -0.0676248 0.0620796 -2.6289 0 -0.5 -9.95174 0.015 0 0 -0.346714 0.0353429 
1 1 -0.158848 0.400028 -2.61656 -0.021394 -0.0706631 -10.0239 0.025 0 0 -1.60516 0.163625 
108 1 -0.089121 -0.199176 -2.54504 0 -0.5 -9.86875 0.015 0 0 -0.346714 0.0353429 
69 1 -0.020474 -0.178917 -2.50123 0 -0.5 -9.82509 0.015 0 0 -0.346714 0.0353429 
35 1 -0.146938 -0.00520797 -2.48818 0 -0.5 -9.81205 0.025 0 0 -1.60516 0.163625 
102 1 -0.11709 -0.199101 -2.42752 0 -0.5 -9.75122 0.015 0 0 -0.346714 0.0353429 
139 1 -0.104092 -0.141428 -2.42782 0 -0.5 -9.75152 0.015 0 0 -0.346714 0.0353429 
144 1 -0.0691235 -0.138526 -2.42966 0 -0.5 -9.75338 0.015 0 0 -0.346714 0.0353429 
22 1 -0.102489 -0.0736935 -2.43777 0 -0.5 -9.76152 0.025 0 0 -1.60516 0.163625 
14 1 -0.0571303 -0.207025 -2.40639 0 -0.5 -9.72994 0.025 0 0 -1.60516 0.163625 
55 1 -0.096003 0.0324084 -2.39718 -7.52477e-06 -0.49998 -9.72065 0.015 0 0 -0.346714 0.0353429 
141 1 -0.136875 -0.125736 -2.37753 0 -0.5 -9.7008 0.015 0 0 -0.346714 0.0353429 
87 1 -0.113676 -0.00441243 -2.32018 0 -0.5 -9.64263 0.015 0 0 -0.346714 0.0353429 
21 1 -0.0470047 0.0774999 -2.34906 0 -0.5 -9.67196 0.025 0 0 -1.60516 0.163625 
94 1 -0.388776 0.139804 -2.34763 -0.356499 -0.190573 -9.70819 0.015 0 0 -0.346714 0.0353429 
107 1 -0.141609 -0.210052 -2.26854 0 -0.5 -9.58995 0.015 0 0 -0.346714 0.0353429 
147 1 -0.100309 0.0654308 -2.23752 0 -0.5 -9.55816 0.015 0 0 -0.346714 0.0353429 
112 1 -0.073338 -0.126721 -2.21738 0 -0.5 -9.53746 0.015 0 0 -0.346714 0.0353429 
84 1 -0.116406 -0.0462137 -2.22414 0 -0.5 -9.54443 0.015 0 0 -0.346714 0.0353429 
142 1 -0.0724928 -0.185252 -2.17494 0 -0.5 -9.49371 0.015 0 0 -0.346714 0.0353429 
47 1 -0.140465 0.0374497 -2.17475 0 -0.5 -9.49352 0.025 0 0 -1.60516 0.163625 
145 1 -0.0934491 0.0301128 -2.17075 0 -0.5 -9.4894 0.015 0 0 -0.346714 0.0353429 
80 1 -0.102893 0.000892521 -2.13968 0 -0.5 -9.45722 0.015 0 0 -0.346714 0.0353429 
6 1 -0.0329529 -0.109807 -2.13216 0.101461 -0.428163 -9.45289 0.025 0 0 -1.60516 0.163625 
135 1 -0.140472 -0.117107 -2.08266 0 -0.5 -9.39787 0.015 0 0 -0.346714 0.0353429 
62 1 -0.0849655 0.0904061 -2.08321 0 -0.5 -9.39846 0.015 0 0 -0.346714 0.0353429 
280 1 -0.198976 0.426348 -2.08856 -0.323138 -0.0374805 -9.46054 0.015 0 0 -0.346714 0.0353429 
32 1 -0.195818 -0.222301 -2.0768 -0.0613285 -0.540948 -9.38995 0.025 0 0 -1.60516 0.163625 
15 1 -0.0605579 0.00891958 -2.05198 0.0430154 -0.390763 -9.34569 0.025 0 0 -1.60516 0.163625 
138 1 -0.0317395 -0.182684 -2.04515 0 -0.5 -9.35863 0.015 0 0 -0.346714 0.0353429 
128 1 -0.145291 -0.0323232 -2.04186 0 -0.5 -9.35519 0.015 0 0 -0.346714 0.0353429 
121 1 -0.0679495 0.0720779 -2.00219 0 -0.5 -9.3135 0.015 0 0 -0.346714 0.0353429 
129 1 -0.0553418 -0.158801 -1.92911 0 -0.5 -9.2362 0.015 0 0 -0.346714 0.0353429 
13 1 -0.146779 -0.0761789 -1.89996 0 -0.5 -9.2052 0.025 0 0 -1.60516 0.163625 
101 1 -0.102489 -0.0661755 -1.90808 0 -0.5 -9.21383 0.015 0 0 -0.346714 0.0353429 
37 1 -0.0716655 0.0366653 -1.90918 0 -0.5 -9.21501 0.025 0 0 -1.60516 0.163625 
46 1 -0.032303 0.0985688 -1.89877 0 -0.5 -9.20392 0.025 0 0 -1.60516 0.163625 
61 1 -0.0231802 -0.189065 -1.87735 0 -0.5 -9.18107 0.015 0 0 -0.346714 0.0353429 
79 1 -0.0179342 -0.155016 -1.87718 0 -0.5 -9.18087 0.015 0 0 -0.346714 0.0353429 
91 1 -0.124131 0.030132 -1.87626 0 -0.5 -9.17989 0.015 0 0 -0.346714 0.0353429 
52 1 -0.100497 -0.17351 -1.86085 0 -0.5 -9.16341 0.015 0 0 -0.346714 0.0353429 
5 1 -0.137704 -0.145588 -1.83943 0 -0.5 -9.14045 0.025 0 0 -1.60516 0.163625 
20 1 -0.124339 -0.0181123 -1.8461 0 -0.5 -9.14762 0.025 0 0 -1.60516 0.163625 
7 1 -0.0712578 -0.106551 -1.83276 0 -0.5 -9.13329 0.025 0 0 -1.60516 0.163625 
86 1 -0.142939 0.0230587 -1.76236 0 -0.5 -9.05736 0.015 0 0 -0.346714 0.0353429 
9 1 -0.0320364 0.0571587 -1.75548 0 -0.5 -9.04991 0.025 0 0 -1.60516 0.163625 
58 1 -0.0969698 -0.0721093 -1.72748 0 -0.5 -9.0195 0.015 0 0 -0.346714 0.0353429 
124 1 -0.136447 0.0533765 -1.72774 0 -0.5 -9.01979 0.015 0 0 -0.346714 0.0353429 
65 1 -0.147981 -0.168903 -1.69984 0 -0.5 -8.98938 0.015 0 0 -0.346714 0.0353429 
41 1 -0.107908 0.108758 -1.70504 0 -0.5 -8.99507 0.025 0 0 -1.60516 0.163625 
131 1 -0.025873 0.0960403 -1.64385 0 -0.5 -8.92807 0.015 0 0 -0.346714 0.0353429 
104 1 -0.138444 -0.00478294 -1.62458 0 -0.5 -8.90688 0.015 0 0 -0.346714 0.0353429 
132 1 -0.0234712 -0.135832 -1.5868 0 -0.5 -8.86519 0.015 0 0 -0.346714 0.0353429 
48 1 -0.144727 -0.078148 -1.58841 0 -0.5 -8.86695 0.025 0 0 -1.60516 0.163625 
53 1 -0.106432 -0.0336597 -1.58414 0 -0.5 -8.86224 0.015 0 0 -0.346714 0.0353429 
49 1 -0.0613084 -0.15829 -1.54702 0 -0.5 -8.82104 0.025 0 0 -1.60516 0.163625 
16 1 -0.129915 0.0650792 -1.54075 0 -0.5 -8.81408 0.025 0 0 -1.60516 0.163625 
27 1 -0.0637137 0.0918848 -1.53944 0 -0.5 -8.8126 0.025 0 0 -1.60516 0.163625 
82 1 -0.0851821 0.0556269 -1.52798 0 -0.5 -8.79985 0.015 0 0 -0.346714 0.0353429 
63 1 -0.147823 0.121713 -1.50919 0 -0.5 -8.77886 0.015 0 0 -0.346714 0.0353429 
25 1 -0.104447 -0.124215 -1.45127 0 -0.5 -8.71391 0.025 0 0 -1.60516 0.163625 
127 1 -0.0304133 -0.112379 -1.47405 0 -0.5 -8.73952 0.015 0 0 -0.346714 0.0353429 
56 1 -0.11556 0.119119 -1.47432 0 -0.5 -8.73981 0.015 0 0 -0.346714 0.0353429 
42 1 -0.132916 -0.0312044 -1.42223 0 -0.5 -8.68115 0.025 0 0 -1.60516 0.163625 
123 1 -0.11925 0.0254922 -1.41486 0 -0.5 -8.67281 0.015 0 0 -0.346714 0.0353429 
64 1 -0.145219 0.0891771 -1.3869 0 -0.5 -8.64112 0.015 0 0 -0.346714 0.0353429 
361 1 -0.0655065 -0.132841 -1.35834 0 -0.5 -8.60865 0.015 0 0 -0.346714 0.0353429 
125 1 -0.0960051 0.0811273 -1.38316 0 -0.5 -8.63691 0.015 0 0 -0.346714 0.0353429 
391 1 -0.0665259 0.0661896 -1.35559 0 -0.5 -8.60551 0.015 0 0 -0.346714 0.0353429 
392 1 -0.0201822 -0.160623 -1.35334 0 -0.5 -8.60296 0.015 0 0 -0.346714 0.0353429 
375 1 -0.132504 -0.0957871 -1.33943 0 -0.5 -8.58707 0.015 0 0 -0.346714 0.0353429 
353 1 -0.0778865 -0.0794899 -1.30106 0 -0.5 -8.54312 0.015 0 0 -0.346714 0.0353429 
370 1 -0.0476722 0.138061 -1.30113 0 -0.5 -8.54322 0.015 0 0 -0.346714 0.0353429 
432 1 -0.110656 -0.0199772 -1.27658 0 -0.5 -8.51497 0.015 0 0 -0.346714 0.0353429 
423 1 -0.035066 0.0843516 -1.27989 0 -0.5 -8.51879 0.015 0 0 -0.346714 0.0353429 
449 1 -0.121601 -0.15503 -1.25464 0 -0.5 -8.48966 0.015 0 0 -0.346714 0.0353429 
348 1 -0.0532954 -0.149887 -1.2182 -0.0150753 -0.514502 -8.44551 0.025 0 0 -1.60516 0.163625 
409 1 -0.1116 -0.0477207 -1.20582 0 -0.5 -8.43305 0.015 0 0 -0.346714 0.0353429 
434 1 -0.110177 0.112235 -1.21012 0 -0.5 -8.43806 0.015 0 0 -0.346714 0.0353429 
304 1 -0.147639 0.0782992 -1.15808 0 -0.5 -8.37733 0.025 0 0 -1.60516 0.163625 
414 1 -0.12165 0.0224124 -1.09711 0 -0.5 -8.30562 0.015 0 0 -0.346714 0.0353429 
327 1 -0.047146 0.115396 -1.1069 0 -0.5 -8.3172 0.025 0 0 -1.60516 0.163625 
368 1 -0.0426125 -0.109897 -1.06495 0 -0.5 -8.26756 0.015 0 0 -0.346714 0.0353429 
416 1 -0.148865 0.0437519 -1.07438 0 -0.5 -8.27874 0.015 0 0 -0.346714 0.0353429 
422 1 -0.0856494 0.106628 -1.06825 0 -0.5 -8.27148 0.015 0 0 -0.346714 0.0353429 
328 1 -0.101567 -0.0846404 -1.0354 0 -0.5 -8.23244 0.025 0 0 -1.60516 0.163625 
342 1 -0.0942786 0.0660065 -1.03319 0 -0.5 -8.22979 0.025 0 0 -1.60516 0.163625 
307 1 -0.141488 -0.115684 -1.01445 0 -0.5 -8.20742 0.025 0 0 -1.60516 0.163625 
441 1 -0.0895132 0.144957 -1.01372 0 -0.5 -8.20654 0.015 0 0 -0.346714 0.0353429 
440 1 -0.074831 -0.133367 -0.990039 0 -0.5 -8.17819 0.015 0 0 -0.346714 0.0353429 
352 1 -0.144025 0.103939 -0.970265 0 -0.5 -8.15445 0.015 0 0 -0.346714 0.0353429 
388 1 -0.0545692 -0.0693145 -0.938712 0 -0.5 -8.11639 0.015 0 0 -0.346714 0.0353429 
323 1 -0.131477 -0.000186514 -0.942354 0 -0.5 -8.1208 0.025 0 0 -1.60516 0.163625 
330 1 -0.125578 0.160028 -0.962206 0 -0.5 -8.14474 0.025 0 0 -1.60516 0.163625 
406 1 -0.0920408 0.103666 -0.923466 0 -0.5 -8.09795 0.015 0 0 -0.346714 0.0353429 
418 1 -0.0554251 -0.12306 -0.850189 0 -0.5 -8.00867 0.015 0 0 -0.346714 0.0353429 
318 1 -0.126425 0.0771585 -0.854584 0 -0.5 -8.01407 0.025 0 0 -1.60516 0.163625 
331 1 -0.138106 -0.128169 -0.825633 0 -0.5 -7.97856 0.025 0 0 -1.60516 0.163625 
395 1 -0.110093 -0.0721279 -0.837295 0 -0.5 -7.99288 0.015 0 0 -0.346714 0.0353429 
336 1 -0.025747 0.110523 -0.838903 0 -0.5 -7.99484 0.025 0 0 -1.60516 0.163625 
313 1 -0.0392615 -0.0843105 -0.800945 0 -0.5 -7.94815 0.025 0 0 -1.60516 0.163625 
374 1 -0.133879 0.137467 -0.796589 0 -0.5 -7.94275 0.015 0 0 -0.346714 0.0353429 
315 1 -0.0970947 -0.0175935 -0.757158 0 -0.5 -7.8939 0.025 0 0 -1.60516 0.163625 
407 1 -0.0713596 0.110089 -0.754462 0 -0.5 -7.89056 0.015 0 0 -0.346714 0.0353429 
310 1 -0.0919271 0.147993 -0.762601 0 -0.5 -7.90067 0.025 0 0 -1.60516 0.163625 
445 1 -0.0938501 0.0526432 -0.728009 0 -0.5 -7.8576 0.015 0 0 -0.346714 0.0353429 
386 1 -0.118095 0.12111 -0.691585 0 -0.5 -7.81198 0.015 0 0 -0.346714 0.0353429 
377 1 -0.128279 -0.10028 -0.684077 0 -0.5 -7.80257 0.015 0 0 -0.346714 0.0353429 
344 1 -0.147144 0.0534448 -0.653583 0 -0.5 -7.76411 0.025 0 0 -1.60516 0.163625 
302 1 -0.0567477 -0.102684 -0.617814 0 -0.5 -7.71879 0.025 0 0 -1.60516 0.163625 
401 1 -0.0913429 -0.0712196 -0.621594 0 -0.5 -7.7236 0.015 0 0 -0.346714 0.0353429 
439 1 -0.132801 0.0158967 -0.627316 0 -0.5 -7.73085 0.015 0 0 -0.346714 0.0353429 
314 1 -0.136534 -0.0347638 -0.600702 0 -0.5 -7.69701 0.025 0 0 -1.60516 0.163625 
413 1 -0.0512121 0.114816 -0.57191 0 -0.5 -7.66022 0.015 0 0 -0.346714 0.0353429 
431 1 -0.13363 -0.0743494 -0.546145 0 -0.5 -7.62716 0.015 0 0 -0.346714 0.0353429 
355 1 -0.0483468 -0.0552415 -0.56012 0 -0.5 -7.64512 0.015 0 0 -0.346714 0.0353429 
354 1 -0.0927402 0.113498 -0.549196 0 -0.5 -7.63109 0.015 0 0 -0.346714 0.0353429 
442 1 -0.149932 0.174171 -0.569371 0 -0.5 -7.65699 0.015 0 0 -0.346714 0.0353429 
408 1 -0.087028 0.182439 -0.55202 0 -0.5 -7.63472 0.015 0 0 -0.346714 0.0353429 
382 1 -0.0970253 0.223314 -0.544156 0.026541 -0.439017 -7.67031 0.015 0 0 -0.346714 0.0353429 
427 1 -0.0635259 0.3536 -0.52447 0.0988458 -0.172977 -7.70754 0.015 0 0 -0.346714 0.0353429 
446 1 -0.116317 0.0826265 -0.505028 0 -0.5 -7.57409 0.015 0 0 -0.346714 0.0353429 
411 1 -0.0485728 0.165056 -0.489815 0 -0.5 -7.55437 0.015 0 0 -0.346714 0.0353429 
399 1 -0.074527 -0.0519519 -0.424324 0 -0.5 -7.46883 0.015 0 0 -0.346714 0.0353429 
436 1 -0.0854574 0.00295062 -0.425594 0 -0.5 -7.4705 0.015 0 0 -0.346714 0.0353429 
341 1 -0.148816 0.116228 -0.420364 0 -0.5 -7.46363 0.025 0 0 -1.60516 0.163625 
350 1 -0.147794 -0.0646051 -0.401811 0 -0.5 -7.4392 0.025 0 0 -1.60516 0.163625 
335 1 -0.126459 -0.00358221 -0.402244 0 -0.5 -7.43979 0.025 0 0 -1.60516 0.163625 
389 1 -0.0230912 0.189676 -0.41812 0 -0.5 -7.46069 0.015 0 0 -0.346714 0.0353429 
384 1 -0.216815 0.227366 -0.404145 -0.135564 -0.440896 -7.45363 0.015 0 0 -0.346714 0.0353429 
324 1 -0.0498553 -0.0972968 -0.382864 0 -0.5 -7.41419 0.025 0 0 -1.60516 0.163625 
437 1 -0.0723044 -0.0207682 -0.368275 0 -0.5 -7.39486 0.015 0 0 -0.346714 0.0353429 
385 1 -0.0696212 0.125365 -0.389169 0 -0.5 -7.42253 0.015 0 0 -0.346714 0.0353429 
367 1 -0.106717 -0.0401692 -0.300015 0 -0.5 -7.30373 0.015 0 0 -0.346714 0.0353429 
394 1 -0.145405 0.154684 -0.322111 0 -0.5 -7.33335 0.015 0 0 -0.346714 0.0353429 
426 1 -0.0179373 0.184964 -0.300807 0 -0.5 -7.30481 0.015 0 0 -0.346714 0.0353429 
358 1 -0.127277 -0.0732076 -0.272322 0 -0.5 -7.26645 0.015 0 0 -0.346714 0.0353429 
326 1 -0.145564 0.056454 -0.26898 0 -0.5 -7.26194 0.025 0 0 -1.60516 0.163625 
319 1 -0.0687817 0.206025 -0.277491 0 -0.5 -7.27341 0.025 0 0 -1.60516 0.163625 
424 1 -0.156679 0.221036 -0.289679 -0.0730123 -0.390635 -7.29498 0.015 0 0 -0.346714 0.0353429 
376 1 -0.0824761 -0.0282283 -0.232722 0 -0.5 -7.21279 0.015 0 0 -0.346714 0.0353429 
433 1 -0.118613 -0.0873348 -0.184694 0 -0.5 -7.14716 0.015 0 0 -0.346714 0.0353429 
420 1 -0.037203 -0.0791744 -0.177683 0 -0.5 -7.13755 0.015 0 0 -0.346714 0.0353429 
402 1 -0.101682 -0.043713 -0.170911 0 -0.5 -7.12823 0.015 0 0 -0.346714 0.0353429 
306 1 -0.116739 0.134034 -0.173128 0 -0.5 -7.13127 0.025 0 0 -1.60516 0.163625 
412 1 -0.0937388 0.204584 -0.16208 0 -0.5 -7.11606 0.015 0 0 -0.346714 0.0353429 
360 1 -0.116599 0.0572209 -0.129938 0 -0.5 -7.07162 0.015 0 0 -0.346714 0.0353429 
363 1 -0.0911777 0.0333271 -0.126838 0 -0.5 -7.06731 0.015 0 0 -0.346714 0.0353429 
397 1 -0.0557758 0.145618 -0.11964 0 -0.5 -7.0573 0.015 0 0 -0.346714 0.0353429 
371 1 -0.0449321 0.184104 -0.13313 0 -0.5 -7.07604 0.015 0 0 -0.346714 0.0353429 
322 1 -0.131733 -0.0564363 -0.0685135 0 -0.5 -6.98588 0.025 0 0 -1.60516 0.163625 
396 1 -0.0958984 0.11066 -0.0645964 0 -0.5 -6.98039 0.015 0 0 -0.346714 0.0353429 
381 1 -0.0827007 0.179114 -0.074869 0 -0.5 -6.99481 0.015 0 0 -0.346714 0.0353429 
373 1 -0.136858 0.0901841 -0.0513507 0 -0.5 -6.96175 0.015 0 0 -0.346714 0.0353429 
369 1 -0.138958 0.148563 -0.0460718 0 -0.5 -6.9543 0.015 0 0 -0.346714 0.0353429 
383 1 -0.0262689 0.166803 -0.0440452 0 -0.5 -6.95145 0.015 0 0 -0.346714 0.0353429 
308 1 -0.0839217 -0.0459995 -0.00155269 -0.0168546 -0.516386 -6.89025 0.025 0 0 -1.60516 0.163625 
438 1 -0.0987495 0.0423327 0.000166999 0 -0.5 -6.88876 0.015 0 0 -0.346714 0.0353429 
356 1 -0.111476 0.085564 0.013437 0 -0.5 -6.86983 0.015 0 0 -0.346714 0.0353429 
340 1 -0.149237 0.213237 0.0124798 0 -0.5 -6.8712 0.025 0 0 -1.60516 0.163625 
415 1 -0.127182 -0.00586995 0.0389973 0 -0.5 -6.83324 0.015 0 0 -0.346714 0.0353429 
343 1 -0.140775 0.0528986 0.052447 0 -0.5 -6.81391 0.025 0 0 -1.60516 0.163625 
443 1 -0.0906469 0.140658 0.0351609 0 -0.5 -6.83873 0.015 0 0 -0.346714 0.0353429 
349 1 -0.116564 0.172594 0.0600005 0 -0.5 -6.80303 0.025 0 0 -1.60516 0.163625 
351 1 -0.0409452 0.171112 0.068834 0 -0.5 -6.79027 0.015 0 0 -0.346714 0.0353429 
390 1 -0.0988461 -0.0454101 0.110267 0 -0.5 -6.73014 0.015 0 0 -0.346714 0.0353429 
539 1 -0.0374129 0.479554 0.104742 -0.32393 0.0458257 -6.8251 0.015 0 0 -0.346714 0.0353429 
448 1 -0.0329565 -0.03643 0.152739 0 -0.5 -6.66794 0.015 0 0 -0.346714 0.0353429 
347 1 -0.0548177 0.000889959 0.163797 0 -0.5 -6.65166 0.025 0 0 -1.60516 0.163625 
378 1 -0.121409 0.0491982 0.176751 0 -0.5 -6.63253 0.015 0 0 -0.346714 0.0353429 
312 1 -0.134707 0.108718 0.178884 0 -0.5 -6.62939 0.025 0 0 -1.60516 0.163625 
417 1 -0.0160313 0.208054 0.178871 0 -0.5 -6.62939 0.015 0 0 -0.346714 0.0353429 
346 1 -0.156975 0.31018 0.157091 -0.0151472 -0.325165 -6.68782 0.025 0 0 -1.60516 0.163625 
419 1 -0.111609 -0.0544812 0.211639 0 -0.5 -6.58073 0.015 0 0 -0.346714 0.0353429 
362 1 -0.0154426 -0.00439129 0.206095 0 -0.5 -6.58897 0.015 0 0 -0.346714 0.0353429 
359 1 -0.107325 0.153399 0.19317 0 -0.5 -6.6082 0.015 0 0 -0.346714 0.0353429 
303 1 -0.0551599 0.172479 0.206898 0 -0.5 -6.58779 0.025 0 0 -1.60516 0.163625 
421 1 -0.0930175 0.0255422 0.239067 0 -0.5 -6.53972 0.015 0 0 -0.346714 0.0353429 
334 1 -0.103439 0.208448 0.227343 0 -0.5 -6.55728 0.025 0 0 -1.60516 0.163625 
325 1 -0.108423 0.0523174 0.309561 0.0497405 -0.588401 -6.438 0.025 0 0 -1.60516 0.163625 
320 1 -0.0648735 -0.0150713 0.339045 0 -0.5 -6.38796 0.025 0 0 -1.60516 0.163625 
365 1 -0.175586 0.114557 0.33574 -0.198006 -0.434998 -6.32073 0.015 0 0 -0.346714 0.0353429 
372 1 -0.0702168 0.168237 0.349777 0 -0.5 -6.37148 0.015 0 0 -0.346714 0.0353429 
447 1 -0.122284 0.249789 0.340782 0 -0.5 -6.38532 0.015 0 0 -0.346714 0.0353429 
309 1 -0.144284 -0.0159691 0.369738 0 -0.5 -6.34068 0.025 0 0 -1.60516 0.163625 
430 1 -0.123083 0.0313929 0.390527 0 -0.5 -6.3084 0.015 0 0 -0.346714 0.0353429 
387 1 -0.0901615 0.146452 0.376454 0 -0.5 -6.33028 0.015 0 0 -0.346714 0.0353429 
338 1 -0.0583644 0.237556 0.37353 0 -0.5 -6.33479 0.025 0 0 -1.60516 0.163625 
403 1 -0.0833248 0.037397 0.396656 0 -0.5 -6.29889 0.015 0 0 -0.346714 0.0353429 
393 1 -0.015571 0.208279 0.418893 0 -0.5 -6.26416 0.015 0 0 -0.346714 0.0353429 
379 1 -0.0327871 -0.0136708 0.426332 0 -0.5 -6.25249 0.015 0 0 -0.346714 0.0353429 
357 1 -0.0584785 0.0352145 0.482883 0 -0.5 -6.16312 0.015 0 0 -0.346714 0.0353429 
316 1 -0.0983119 -0.0298893 0.495687 0 -0.5 -6.14271 0.025 0 0 -1.60516 0.163625 
596 1 -0.0119287 -0.010385 0.493407 -0.249685 -0.689253 -6.06351 0.015 0 0 -0.346714 0.0353429 
380 1 -0.127355 0.145976 0.510702 0 -0.5 -6.11868 0.015 0 0 -0.346714 0.0353429 
301 1 -0.0833193 0.205221 0.498588 0.012148 -0.512208 -6.13809 0.025 0 0 -1.60516 0.163625 
428 1 -0.0387226 0.220002 0.508574 0 -0.5 -6.12211 0.015 0 0 -0.346714 0.0353429 
329 1 -0.129279 0.251587 0.490839 -0.0138001 -0.485947 -6.1505 0.025 0 0 -1.60516 0.163625 
450 1 -0.0322061 0.264898 0.511131 0 -0.5 -6.11799 0.015 0 0 -0.346714 0.0353429 
364 1 -0.0453235 0.000806531 0.520725 0 -0.5 -6.10259 0.015 0 0 -0.346714 0.0353429 
321 1 -0.126579 0.0412512 0.522796 0 -0.5 -6.09926 0.025 0 0 -1.60516 0.163625 
410 1 -0.145474 0.0905358 0.532186 0 -0.5 -6.08415 0.015 0 0 -0.346714 0.0353429 
333 1 -0.0978849 0.103337 0.524809 0 -0.5 -6.09602 0.025 0 0 -1.60516 0.163625 
337 1 -0.142368 0.186838 0.554998 0 -0.5 -6.04726 0.025 0 0 -1.60516 0.163625 
332 1 -0.0814262 0.032266 0.636672 0 -0.5 -5.91326 0.025 0 0 -1.60516 0.163625 
425 1 -0.074083 -0.0212132 0.666892 0 -0.5 -5.86293 0.015 0 0 -0.346714 0.0353429 
400 1 -0.135353 0.075905 0.644426 0 -0.5 -5.90041 0.015 0 0 -0.346714 0.0353429 
339 1 -0.0802774 0.24066 0.665771 0 -0.5 -5.8648 0.025 0 0 -1.60516 0.163625 
305 1 -0.0452536 0.277472 0.666886 0 -0.5 -5.86293 0.025 0 0 -1.60516 0.163625 
544 1 -0.130957 0.422852 0.645781 -0.39021 -0.130746 -5.94637 0.015 0 0 -0.346714 0.0353429 
311 1 -0.0354402 -0.00563246 0.689437 0 -0.5 -5.82507 0.025 0 0 -1.60516 0.163625 
317 1 -0.129905 0.118055 0.682098 0 -0.5 -5.83743 0.025 0 0 -1.60516 0.163625 
366 1 -0.144217 0.195022 0.677011 0 -0.5 -5.84596 0.015 0 0 -0.346714 0.0353429 
405 1 -0.038992 0.22939 0.689086 0 -0.5 -5.82565 0.015 0 0 -0.346714 0.0353429 
404 1 -0.119976 -0.000155614 0.713305 0 -0.5 -5.78475 0.015 0 0 -0.346714 0.0353429 
345 1 -0.128178 0.0426745 0.705998 0 -0.5 -5.79711 0.025 0 0 -1.60516 0.163625 
435 1 -0.0960728 0.0799762 0.714237 0 -0.5 -5.78318 0.015 0 0 -0.346714 0.0353429 
675 1 -0.141631 0.278526 0.751507 -0.0349785 -0.349711 -5.78 0.015 0 0 -0.346714 0.0353429 
444 1 -0.0159467 0.275826 0.748414 0 -0.5 -5.72491 0.015 0 0 -0.346714 0.0353429 
714 1 -0.0240605 0.044326 0.790619 0 -0.5 -5.65212 0.015 0 0 -0.346714 0.0353429 
676 1 -0.132839 0.0718674 0.811634 0 -0.5 -5.61552 0.015 0 0 -0.346714 0.0353429 
634 1 -0.102181 0.264021 0.801514 0 -0.5 -5.63318 0.025 0 0 -1.60516 0.163625 
690 1 -0.0634806 0.242565 0.798738 0 -0.5 -5.63799 0.015 0 0 -0.346714 0.0353429 
652 1 -0.0683105 0.0763376 0.831221 0 -0.5 -5.58119 0.015 0 0 -0.346714 0.0353429 
629 1 -0.113195 0.123381 0.846822 0 -0.5 -5.55372 0.025 0 0 -1.60516 0.163625 
669 1 -0.0318411 0.253893 0.835806 0 -0.5 -5.57315 0.015 0 0 -0.346714 0.0353429 
608 1 -0.0938106 0.0127933 0.884407 0 -0.5 -5.48692 0.025 0 0 -1.60516 0.163625 
682 1 -0.0469368 0.00878118 0.895088 0 -0.5 -5.46779 0.015 0 0 -0.346714 0.0353429 
657 1 -0.0480729 0.0469275 0.906936 0 -0.5 -5.4465 0.015 0 0 -0.346714 0.0353429 
606 1 -0.122186 0.196932 0.889808 0.00210743 -0.508228 -5.47405 0.025 0 0 -1.60516 0.163625 
708 1 -0.0786991 0.237401 0.886872 0 -0.5 -5.4825 0.015 0 0 -0.346714 0.0353429 
701 1 -0.0870486 0.295674 0.891306 0 -0.5 -5.47455 0.015 0 0 -0.346714 0.0353429 
735 1 -0.0832421 0.0906695 0.927176 0 -0.5 -5.40991 0.015 0 0 -0.346714 0.0353429 
660 1 -0.0183143 0.250377 0.911442 0 -0.5 -5.43836 0.015 0 0 -0.346714 0.0353429 
618 1 -0.13283 0.0571641 0.982002 0 -0.5 -5.30955 0.025 0 0 -1.60516 0.163625 
709 1 -0.101732 0.139531 0.971211 0 -0.5 -5.32946 0.015 0 0 -0.346714 0.0353429 
750 1 -0.0862874 0.204179 0.984607 0 -0.5 -5.30474 0.015 0 0 -0.346714 0.0353429 
707 1 -0.0900659 0.0399886 1.00221 0 -0.5 -5.27208 0.015 0 0 -0.346714 0.0353429 
680 1 -0.0791761 0.0948811 1.01978 0 -0.5 -5.23931 0.015 0 0 -0.346714 0.0353429 
649 1 -0.129761 0.173177 1.0037 0 -0.5 -5.26933 0.025 0 0 -1.60516 0.163625 
640 1 -0.0489559 0.0595172 1.03362 0 -0.5 -5.21331 0.025 0 0 -1.60516 0.163625 
616 1 -0.140255 0.265264 1.03455 0 -0.5 -5.21155 0.025 0 0 -1.60516 0.163625 
725 1 -0.0732043 0.267614 1.05951 0 -0.5 -5.16436 0.015 0 0 -0.346714 0.0353429 
712 1 -0.0372677 0.31055 1.04798 0 -0.5 -5.18624 0.015 0 0 -0.346714 0.0353429 
677 1 -0.113879 0.0303032 1.07168 0 -0.5 -5.14121 0.015 0 0 -0.346714 0.0353429 
744 1 -0.107021 0.216725 1.09217 0 -0.5 -5.10197 0.015 0 0 -0.346714 0.0353429 
685 1 -0.0969629 0.263703 1.11764 0 -0.5 -5.05272 0.015 0 0 -0.346714 0.0353429 
736 1 -0.0864872 0.123793 1.1289 0 -0.5 -5.03085 0.015 0 0 -0.346714 0.0353429 
625 1 -0.044815 0.22073 1.14157 0.250947 -0.205125 -5.10413 0.025 0 0 -1.60516 0.163625 
610 1 -0.108705 0.063549 1.17772 0 -0.5 -4.93471 0.025 0 0 -1.60516 0.163625 
692 1 -0.0389882 0.0850701 1.16078 0 -0.5 -4.96826 0.015 0 0 -0.346714 0.0353429 
722 1 -0.124711 0.262428 1.16088 0 -0.5 -4.96806 0.015 0 0 -0.346714 0.0353429 
620 1 -0.0294016 0.295755 1.17358 0 -0.5 -4.94295 0.025 0 0 -1.60516 0.163625 
674 1 -0.11657 0.319544 1.15422 0 -0.5 -4.98121 0.015 0 0 -0.346714 0.0353429 
699 1 -0.0856858 0.32142 1.15118 0 -0.5 -4.98719 0.015 0 0 -0.346714 0.0353429 
748 1 -0.0192599 0.0528309 1.20076 0 -0.5 -4.8887 0.015 0 0 -0.346714 0.0353429 
683 1 -0.0829948 0.264592 1.1838 0 -0.5 -4.92264 0.015 0 0 -0.346714 0.0353429 
732 1 -0.0691875 0.301647 1.19145 0 -0.5 -4.90734 0.015 0 0 -0.346714 0.0353429 
678 1 -0.0973357 0.193233 1.23135 0 -0.5 -4.8269 0.015 0 0 -0.346714 0.0353429 
636 1 -0.149776 0.238476 1.21795 0 -0.5 -4.85407 0.025 0 0 -1.60516 0.163625 
705 1 -0.0946775 0.0412794 1.25522 0 -0.5 -4.77814 0.015 0 0 -0.346714 0.0353429 
641 1 -0.148632 0.103601 1.26984 -0.0165282 -0.51578 -4.74235 0.025 0 0 -1.60516 0.163625 
696 1 -0.058387 0.267843 1.24814 0 -0.5 -4.79266 0.015 0 0 -0.346714 0.0353429 
698 1 -0.111785 0.281616 1.26938 0 -0.5 -4.74901 0.015 0 0 -0.346714 0.0353429 
648 1 -0.130879 0.322847 1.25891 0 -0.5 -4.77059 0.025 0 0 -1.60516 0.163625 
730 1 -0.0250727 0.0532457 1.29583 0 -0.5 -4.69407 0.015 0 0 -0.346714 0.0353429 
694 1 -0.138308 0.205231 1.28358 0 -0.5 -4.71958 0.015 0 0 -0.346714 0.0353429 
733 1 -0.0833844 0.238272 1.28482 0 -0.5 -4.71703 0.015 0 0 -0.346714 0.0353429 
639 1 -0.0458533 0.462937 1.29568 0.113569 0.037071 -4.74052 0.025 0 0 -1.60516 0.163625 
644 1 -0.140738 0.051303 1.31646 0 -0.5 -4.65071 0.025 0 0 -1.60516 0.163625 
637 1 -0.0618774 0.0728169 1.30613 0 -0.5 -4.67249 0.025 0 0 -1.60516 0.163625 
729 1 -0.0894542 0.103908 1.30924 0 -0.5 -4.66592 0.015 0 0 -0.346714 0.0353429 
724 1 -0.0903421 0.141009 1.32932 0 -0.5 -4.62354 0.015 0 0 -0.346714 0.0353429 
745 1 -0.0513061 0.220667 1.31228 0.249023 -0.340208 -4.72886 0.015 0 0 -0.346714 0.0353429 
628 1 -0.0958048 0.237856 1.35547 -0.035052 -0.643145 -4.55439 0.025 0 0 -1.60516 0.163625 
684 1 -0.0877228 0.0864894 1.38013 0 -0.5 -4.51445 0.015 0 0 -0.346714 0.0353429 