ITEM: TIMESTEP
56800
ITEM: NUMBER OF ATOMS
600
ITEM: BOX BOUNDS mm mm mm
-1 1
-1 1
-0.636837 2.85
ITEM: ATOMS id type x y z vx vy vz radius fx fy fz mass 
68 1 -0.0997213 -0.0387286 -0.435833 0 -0.5 -7.48394 0.015 0 0 -0.346714 0.0353429 
45 1 -0.0943793 -0.0877624 -0.397202 0 -0.5 -7.43312 0.025 0 0 -1.60516 0.163625 
122 1 -0.0684031 -0.0347625 -0.396445 0.00811842 -0.517403 -7.4315 0.015 0 0 -0.346714 0.0353429 
137 1 -0.0904438 0.0127061 -0.417857 -0.00924354 -0.479856 -7.46108 0.015 0 0 -0.346714 0.0353429 
33 1 -0.129286 0.152605 -0.40546 0 -0.5 -7.44401 0.025 0 0 -1.60516 0.163625 
43 1 -0.116198 0.0637854 -0.36858 0 -0.5 -7.39525 0.025 0 0 -1.60516 0.163625 
111 1 -0.0487783 0.1961 -0.367769 0 -0.5 -7.39418 0.015 0 0 -0.346714 0.0353429 
119 1 -0.0370509 -0.0988114 -0.357267 0 -0.5 -7.38025 0.015 0 0 -0.346714 0.0353429 
78 1 -0.0422369 0.159955 -0.346735 0 -0.5 -7.36622 0.015 0 0 -0.346714 0.0353429 
75 1 -0.0493142 -0.0483279 -0.33379 0 -0.5 -7.34895 0.015 0 0 -0.346714 0.0353429 
89 1 -0.129145 -0.0196921 -0.325116 0 -0.5 -7.33738 0.015 0 0 -0.346714 0.0353429 
59 1 -0.0865612 0.108868 -0.305928 0 -0.5 -7.31167 0.015 0 0 -0.346714 0.0353429 
92 1 -0.131017 0.203327 -0.285628 0 -0.5 -7.2844 0.015 0 0 -0.346714 0.0353429 
26 1 -0.0378031 0.0611241 -0.236077 0.14857 -0.341553 -7.25345 0.025 0 0 -1.60516 0.163625 
8 1 -0.104188 -0.080537 -0.187988 0 -0.5 -7.15167 0.025 0 0 -1.60516 0.163625 
98 1 -0.147127 0.0524418 -0.210627 0 -0.5 -7.18267 0.015 0 0 -0.346714 0.0353429 
151 1 -0.0686397 0.134527 -0.211407 0 -0.5 -7.18375 0.015 0 0 -0.346714 0.0353429 
3 1 -0.141317 0.117388 -0.17761 0 -0.5 -7.13745 0.025 0 0 -1.60516 0.163625 
72 1 -0.105673 0.154796 -0.159736 0 -0.5 -7.11282 0.015 0 0 -0.346714 0.0353429 
100 1 -0.0681017 -0.012079 -0.13397 0 -0.5 -7.07721 0.015 0 0 -0.346714 0.0353429 
140 1 -0.125739 0.0295564 -0.140419 0 -0.5 -7.08614 0.015 0 0 -0.346714 0.0353429 
40 1 -0.104474 0.206198 -0.138937 0 -0.5 -7.08408 0.025 0 0 -1.60516 0.163625 
118 1 -0.0372647 0.189681 -0.127184 0 -0.5 -7.0678 0.015 0 0 -0.346714 0.0353429 
117 1 -0.0596227 -0.0689792 -0.107297 0 -0.5 -7.04013 0.015 0 0 -0.346714 0.0353429 
51 1 -0.162144 -0.0573093 -0.0739107 -0.0265052 -0.519812 -6.98823 0.025 0 0 -1.60516 0.163625 
282 1 -0.033274 -0.0184668 -0.067773 -0.2609 -0.673185 -6.96805 0.015 0 0 -0.346714 0.0353429 
148 1 -0.192548 0.080161 -0.0908826 -0.171679 -0.397353 -7.08947 0.015 0 0 -0.346714 0.0353429 
90 1 -0.146535 0.207667 -0.031765 0 -0.5 -6.93409 0.015 0 0 -0.346714 0.0353429 
60 1 -0.0770515 -0.0600724 -0.00618649 0 -0.5 -6.89779 0.015 0 0 -0.346714 0.0353429 
11 1 -0.0963229 0.105255 -0.0155179 0.022917 -0.457889 -6.92695 0.025 0 0 -1.60516 0.163625 
50 1 -0.130982 0.164355 -0.00431742 0 -0.5 -6.89514 0.025 0 0 -1.60516 0.163625 
105 1 -0.236978 0.109524 0.0483133 -0.321192 -0.368687 -6.81066 0.015 0 0 -0.346714 0.0353429 
74 1 -0.0790012 0.151893 0.0377741 0 -0.5 -6.83501 0.015 0 0 -0.346714 0.0353429 
76 1 -0.0202065 0.18007 0.0569361 0 -0.5 -6.80744 0.015 0 0 -0.346714 0.0353429 
44 1 -0.125916 -0.0684035 0.0697078 0 -0.5 -6.789 0.025 0 0 -1.60516 0.163625 
29 1 -0.0788351 0.194182 0.0883412 0 -0.5 -6.76202 0.025 0 0 -1.60516 0.163625 
36 1 -0.103411 -0.0216875 0.0955687 0 -0.5 -6.75152 0.025 0 0 -1.60516 0.163625 
54 1 -0.17112 0.00917883 0.122716 -0.0956439 -0.529683 -6.70022 0.015 0 0 -0.346714 0.0353429 
114 1 -0.0720814 0.00850134 0.138259 -0.00040144 -0.499666 -6.68931 0.015 0 0 -0.346714 0.0353429 
73 1 -0.0639552 -0.0422333 0.174639 0 -0.5 -6.63567 0.015 0 0 -0.346714 0.0353429 
2 1 -0.110349 0.105071 0.181524 0 -0.5 -6.62546 0.025 0 0 -1.60516 0.163625 
113 1 -0.118506 0.229198 0.166986 0 -0.5 -6.64695 0.015 0 0 -0.346714 0.0353429 
146 1 -0.109965 -0.0550837 0.20155 0 -0.5 -6.59574 0.015 0 0 -0.346714 0.0353429 
12 1 -0.0363281 0.214336 0.199718 0 -0.5 -6.59849 0.025 0 0 -1.60516 0.163625 
57 1 -0.120673 0.0610605 0.234143 0 -0.5 -6.54708 0.015 0 0 -0.346714 0.0353429 
88 1 -0.0666498 0.171919 0.220978 0 -0.5 -6.5668 0.015 0 0 -0.346714 0.0353429 
99 1 -0.146283 0.00951709 0.249513 0 -0.5 -6.52403 0.015 0 0 -0.346714 0.0353429 
10 1 -0.0670419 0.182162 0.260302 0.0635655 -0.375939 -6.58072 0.025 0 0 -1.60516 0.163625 
19 1 -0.0715757 0.0192524 0.296478 0 -0.5 -6.453 0.025 0 0 -1.60516 0.163625 
66 1 -0.0281121 -0.00317723 0.301321 0 -0.5 -6.44565 0.015 0 0 -0.346714 0.0353429 
83 1 -0.108229 0.039146 0.291904 0 -0.5 -6.45997 0.015 0 0 -0.346714 0.0353429 
34 1 -0.138562 0.178511 0.284985 0 -0.5 -6.47047 0.025 0 0 -1.60516 0.163625 
67 1 -0.0183057 -0.0476113 0.333034 0 -0.5 -6.39719 0.015 0 0 -0.346714 0.0353429 
81 1 -0.036776 0.191699 0.314641 0.07636 -0.438847 -6.39316 0.015 0 0 -0.346714 0.0353429 
71 1 -0.145263 0.222198 0.311438 0 -0.5 -6.43025 0.015 0 0 -0.346714 0.0353429 
24 1 -0.138394 -0.0205481 0.348558 0 -0.5 -6.37335 0.025 0 0 -1.60516 0.163625 
133 1 -0.127566 0.0959444 0.359508 0 -0.5 -6.35647 0.015 0 0 -0.346714 0.0353429 
95 1 -0.10482 0.183312 0.363884 0 -0.5 -6.3497 0.015 0 0 -0.346714 0.0353429 
39 1 -0.0696793 0.23301 0.364025 0 -0.5 -6.34951 0.025 0 0 -1.60516 0.163625 
103 1 -0.135939 0.0237223 0.394761 0 -0.5 -6.30183 0.015 0 0 -0.346714 0.0353429 
70 1 -0.107191 0.00592438 0.410038 0 -0.5 -6.27799 0.015 0 0 -0.346714 0.0353429 
143 1 -0.11631 0.241682 0.405649 0 -0.5 -6.28486 0.015 0 0 -0.346714 0.0353429 
28 1 -0.0685748 -0.0179299 0.441378 0 -0.5 -6.22885 0.025 0 0 -1.60516 0.163625 
97 1 -0.0338223 0.00914396 0.430149 0 -0.5 -6.2465 0.015 0 0 -0.346714 0.0353429 
115 1 -0.076478 0.0444311 0.430654 0 -0.5 -6.24572 0.015 0 0 -0.346714 0.0353429 
85 1 -0.13789 0.166015 0.433646 0 -0.5 -6.24101 0.015 0 0 -0.346714 0.0353429 
134 1 -0.137197 0.206367 0.45362 0 -0.5 -6.20952 0.015 0 0 -0.346714 0.0353429 
126 1 -0.123602 0.0896921 0.46948 -0.0288748 -0.539424 -6.16435 0.015 0 0 -0.346714 0.0353429 
77 1 -0.0297287 0.234749 0.462363 0 -0.5 -6.19569 0.015 0 0 -0.346714 0.0353429 
120 1 -0.148569 0.255261 0.464856 0 -0.5 -6.19176 0.015 0 0 -0.346714 0.0353429 
96 1 -0.131998 0.00908135 0.486402 0 -0.5 -6.15753 0.015 0 0 -0.346714 0.0353429 
38 1 -0.121616 0.0501879 0.511504 0 -0.5 -6.1174 0.025 0 0 -1.60516 0.163625 
130 1 -0.0642546 0.0444407 0.558133 0 -0.5 -6.04216 0.015 0 0 -0.346714 0.0353429 
23 1 -0.134189 0.186519 0.55705 0 -0.5 -6.04393 0.025 0 0 -1.60516 0.163625 
31 1 -0.140814 -0.0131227 0.602756 0 -0.5 -5.96927 0.025 0 0 -1.60516 0.163625 
150 1 -0.100106 0.0212069 0.585286 0 -0.5 -5.99792 0.015 0 0 -0.346714 0.0353429 
18 1 -0.106015 0.251686 0.586777 0 -0.5 -5.99547 0.025 0 0 -1.60516 0.163625 
4 1 -0.0330873 0.264857 0.585831 0 -0.5 -5.99704 0.025 0 0 -1.60516 0.163625 
110 1 -0.0868918 -0.0235835 0.634198 0 -0.5 -5.91738 0.015 0 0 -0.346714 0.0353429 
106 1 -0.140267 0.356586 0.610934 -0.0998962 -0.230395 -6.07801 0.015 0 0 -0.346714 0.0353429 
93 1 -0.0244706 -0.0118422 0.650078 0 -0.5 -5.89099 0.015 0 0 -0.346714 0.0353429 
17 1 -0.134634 0.102027 0.65808 0 -0.5 -5.87765 0.025 0 0 -1.60516 0.163625 
136 1 -0.0832352 0.195008 0.654203 0 -0.5 -5.88412 0.015 0 0 -0.346714 0.0353429 
30 1 -0.0481876 0.222857 0.663429 0 -0.5 -5.86872 0.025 0 0 -1.60516 0.163625 
109 1 -0.0676248 0.27008 0.662185 0 -0.5 -5.87078 0.015 0 0 -0.346714 0.0353429 
108 1 -0.089121 0.00882351 0.711515 0 -0.5 -5.78779 0.015 0 0 -0.346714 0.0353429 
1 1 -0.149948 0.429424 0.704558 -0.021394 -0.0706631 -5.94297 0.025 0 0 -1.60516 0.163625 
69 1 -0.020474 0.0290825 0.737166 0 -0.5 -5.74413 0.015 0 0 -0.346714 0.0353429 
35 1 -0.146938 0.202792 0.744792 0 -0.5 -5.73109 0.025 0 0 -1.60516 0.163625 
102 1 -0.11709 0.00889948 0.780151 0 -0.5 -5.67026 0.015 0 0 -0.346714 0.0353429 
139 1 -0.104092 0.066572 0.779971 0 -0.5 -5.67056 0.015 0 0 -0.346714 0.0353429 
144 1 -0.0691235 0.0694741 0.778904 0 -0.5 -5.67242 0.015 0 0 -0.346714 0.0353429 
22 1 -0.102489 0.134306 0.774188 0 -0.5 -5.68056 0.025 0 0 -1.60516 0.163625 
149 1 -0.0411715 0.122169 0.774892 0.199959 -0.45766 -5.87773 0.015 0 0 -0.346714 0.0353429 
14 1 -0.0571303 0.000975466 0.792425 0 -0.5 -5.64898 0.025 0 0 -1.60516 0.163625 
141 1 -0.136875 0.0822642 0.80916 0 -0.5 -5.61984 0.015 0 0 -0.346714 0.0353429 
55 1 -0.0959999 0.2404 0.797774 -7.52477e-06 -0.49998 -5.63969 0.015 0 0 -0.346714 0.0353429 
87 1 -0.113676 0.203588 0.842314 0 -0.5 -5.56167 0.015 0 0 -0.346714 0.0353429 
94 1 -0.240472 0.219083 0.842143 -0.356499 -0.190573 -5.62723 0.015 0 0 -0.346714 0.0353429 
21 1 -0.0470047 0.2855 0.825631 0 -0.5 -5.591 0.025 0 0 -1.60516 0.163625 
107 1 -0.141609 -0.00205233 0.872042 0 -0.5 -5.50899 0.015 0 0 -0.346714 0.0353429 
112 1 -0.073338 0.0812787 0.901368 0 -0.5 -5.4565 0.015 0 0 -0.346714 0.0353429 
84 1 -0.116406 0.161786 0.897499 0 -0.5 -5.46347 0.015 0 0 -0.346714 0.0353429 
147 1 -0.100309 0.273431 0.889832 0 -0.5 -5.4772 0.015 0 0 -0.346714 0.0353429 
142 1 -0.0724928 0.0227478 0.925609 0 -0.5 -5.41275 0.015 0 0 -0.346714 0.0353429 
145 1 -0.0934491 0.238113 0.927996 0 -0.5 -5.40844 0.015 0 0 -0.346714 0.0353429 
47 1 -0.140465 0.24545 0.925716 0 -0.5 -5.41256 0.025 0 0 -1.60516 0.163625 
6 1 -0.0751608 0.0683092 0.951408 0.101461 -0.428163 -5.37193 0.025 0 0 -1.60516 0.163625 
80 1 -0.102893 0.208893 0.945684 0 -0.5 -5.37626 0.015 0 0 -0.346714 0.0353429 
32 1 -0.170305 0.00273394 0.98058 -0.0613285 -0.540948 -5.30899 0.025 0 0 -1.60516 0.163625 
138 1 -0.0317395 0.0253156 0.999202 0 -0.5 -5.27767 0.015 0 0 -0.346714 0.0353429 
135 1 -0.140472 0.0908926 0.978014 0 -0.5 -5.31691 0.015 0 0 -0.346714 0.0353429 
128 1 -0.145291 0.175677 1.00106 0 -0.5 -5.27423 0.015 0 0 -0.346714 0.0353429 
15 1 -0.0784523 0.171477 0.986988 0.0430154 -0.390763 -5.26473 0.025 0 0 -1.60516 0.163625 
62 1 -0.0849655 0.298406 0.977709 0 -0.5 -5.3175 0.015 0 0 -0.346714 0.0353429 
280 1 -0.0645504 0.44194 0.998189 -0.323138 -0.0374805 -5.37958 0.015 0 0 -0.346714 0.0353429 
121 1 -0.0679495 0.280078 1.02339 0 -0.5 -5.23254 0.015 0 0 -0.346714 0.0353429 
129 1 -0.0553418 0.0491994 1.06431 0 -0.5 -5.15524 0.015 0 0 -0.346714 0.0353429 
61 1 -0.0231802 0.0189348 1.09313 0 -0.5 -5.10011 0.015 0 0 -0.346714 0.0353429 
79 1 -0.0179342 0.0529843 1.09323 0 -0.5 -5.09991 0.015 0 0 -0.346714 0.0353429 
13 1 -0.146779 0.131821 1.08056 0 -0.5 -5.12424 0.025 0 0 -1.60516 0.163625 
101 1 -0.102489 0.141824 1.07604 0 -0.5 -5.13287 0.015 0 0 -0.346714 0.0353429 
91 1 -0.124131 0.238132 1.09374 0 -0.5 -5.09893 0.015 0 0 -0.346714 0.0353429 
37 1 -0.0716655 0.244665 1.07542 0 -0.5 -5.13405 0.025 0 0 -1.60516 0.163625 
46 1 -0.032303 0.306569 1.08122 0 -0.5 -5.12296 0.025 0 0 -1.60516 0.163625 
52 1 -0.100497 0.0344895 1.10229 0 -0.5 -5.08245 0.015 0 0 -0.346714 0.0353429 
5 1 -0.137704 0.0624118 1.11416 0 -0.5 -5.05949 0.025 0 0 -1.60516 0.163625 
7 1 -0.0712578 0.101449 1.11785 0 -0.5 -5.05233 0.025 0 0 -1.60516 0.163625 
20 1 -0.124339 0.189888 1.11047 0 -0.5 -5.06666 0.025 0 0 -1.60516 0.163625 
86 1 -0.142939 0.231059 1.15666 0 -0.5 -4.9764 0.015 0 0 -0.346714 0.0353429 
58 1 -0.0969698 0.135891 1.17579 0 -0.5 -4.93854 0.015 0 0 -0.346714 0.0353429 
124 1 -0.136447 0.261377 1.17565 0 -0.5 -4.93883 0.015 0 0 -0.346714 0.0353429 
9 1 -0.0320364 0.265159 1.16044 0 -0.5 -4.96895 0.025 0 0 -1.60516 0.163625 
65 1 -0.147981 0.0390967 1.19091 0 -0.5 -4.90842 0.015 0 0 -0.346714 0.0353429 
41 1 -0.107908 0.316758 1.18807 0 -0.5 -4.91411 0.025 0 0 -1.60516 0.163625 
104 1 -0.138444 0.203217 1.23184 0 -0.5 -4.82592 0.015 0 0 -0.346714 0.0353429 
131 1 -0.025873 0.30404 1.22139 0 -0.5 -4.84711 0.015 0 0 -0.346714 0.0353429 
49 1 -0.0613084 0.0497105 1.27369 0 -0.5 -4.74008 0.025 0 0 -1.60516 0.163625 
132 1 -0.0234712 0.0721681 1.25227 0 -0.5 -4.78423 0.015 0 0 -0.346714 0.0353429 
48 1 -0.144727 0.129852 1.2514 0 -0.5 -4.78599 0.025 0 0 -1.60516 0.163625 
53 1 -0.106432 0.17434 1.25371 0 -0.5 -4.78128 0.015 0 0 -0.346714 0.0353429 
16 1 -0.129915 0.273079 1.27707 0 -0.5 -4.73312 0.025 0 0 -1.60516 0.163625 
27 1 -0.0637137 0.299885 1.27777 0 -0.5 -4.73164 0.025 0 0 -1.60516 0.163625 
82 1 -0.0851821 0.263627 1.28392 0 -0.5 -4.71889 0.015 0 0 -0.346714 0.0353429 
63 1 -0.147823 0.329713 1.29398 0 -0.5 -4.6979 0.015 0 0 -0.346714 0.0353429 
25 1 -0.104447 0.0837853 1.32488 0 -0.5 -4.63295 0.025 0 0 -1.60516 0.163625 
127 1 -0.0304133 0.0956212 1.31275 0 -0.5 -4.65856 0.015 0 0 -0.346714 0.0353429 
42 1 -0.132916 0.176796 1.34029 0 -0.5 -4.60019 0.025 0 0 -1.60516 0.163625 
56 1 -0.11556 0.327119 1.3126 0 -0.5 -4.65885 0.015 0 0 -0.346714 0.0353429 
123 1 -0.11925 0.233492 1.34419 0 -0.5 -4.59185 0.015 0 0 -0.346714 0.0353429 
64 1 -0.145219 0.297177 1.35897 0 -0.5 -4.56016 0.015 0 0 -0.346714 0.0353429 
125 1 -0.0960051 0.289127 1.36095 0 -0.5 -4.55595 0.015 0 0 -0.346714 0.0353429 
392 1 -0.0201822 0.0473766 1.37665 0 -0.5 -4.522 0.015 0 0 -0.346714 0.0353429 
361 1 -0.0655065 0.0751594 1.37402 0 -0.5 -4.52769 0.015 0 0 -0.346714 0.0353429 
375 1 -0.132504 0.112213 1.38396 0 -0.5 -4.50611 0.015 0 0 -0.346714 0.0353429 
391 1 -0.0665259 0.27419 1.37546 0 -0.5 -4.52455 0.015 0 0 -0.346714 0.0353429 
449 1 -0.121601 0.0529702 1.42822 0 -0.5 -4.4087 0.015 0 0 -0.346714 0.0353429 
353 1 -0.0778865 0.12851 1.40404 0 -0.5 -4.46216 0.015 0 0 -0.346714 0.0353429 
432 1 -0.110656 0.188023 1.4168 0 -0.5 -4.43401 0.015 0 0 -0.346714 0.0353429 
423 1 -0.035066 0.292352 1.41508 0 -0.5 -4.43783 0.015 0 0 -0.346714 0.0353429 
370 1 -0.0476722 0.346061 1.40401 0 -0.5 -4.46226 0.015 0 0 -0.346714 0.0353429 
348 1 -0.047024 0.0641458 1.44629 -0.0150753 -0.514502 -4.36455 0.025 0 0 -1.60516 0.163625 
409 1 -0.1116 0.160279 1.45349 0 -0.5 -4.35209 0.015 0 0 -0.346714 0.0353429 
434 1 -0.110177 0.320235 1.45127 0 -0.5 -4.3571 0.015 0 0 -0.346714 0.0353429 
304 1 -0.147639 0.286299 1.47805 0 -0.5 -4.29637 0.025 0 0 -1.60516 0.163625 
414 1 -0.12165 0.230412 1.50919 0 -0.5 -4.22466 0.015 0 0 -0.346714 0.0353429 
416 1 -0.148865 0.251752 1.52074 0 -0.5 -4.19778 0.015 0 0 -0.346714 0.0353429 
422 1 -0.0856494 0.314628 1.52385 0 -0.5 -4.19052 0.015 0 0 -0.346714 0.0353429 
327 1 -0.047146 0.323396 1.50422 0 -0.5 -4.23624 0.025 0 0 -1.60516 0.163625 
307 1 -0.141488 0.0923164 1.551 0 -0.5 -4.12646 0.025 0 0 -1.60516 0.163625 
368 1 -0.0426125 0.0981031 1.52552 0 -0.5 -4.1866 0.015 0 0 -0.346714 0.0353429 
328 1 -0.101567 0.12336 1.54045 0 -0.5 -4.15148 0.025 0 0 -1.60516 0.163625 
342 1 -0.0942786 0.274007 1.54156 0 -0.5 -4.14883 0.025 0 0 -1.60516 0.163625 
441 1 -0.0895132 0.352957 1.55136 0 -0.5 -4.12558 0.015 0 0 -0.346714 0.0353429 
440 1 -0.074831 0.0746332 1.56325 0 -0.5 -4.09723 0.015 0 0 -0.346714 0.0353429 
352 1 -0.144025 0.311939 1.57315 0 -0.5 -4.07349 0.015 0 0 -0.346714 0.0353429 
330 1 -0.125578 0.368028 1.57717 0 -0.5 -4.06378 0.025 0 0 -1.60516 0.163625 
388 1 -0.0545692 0.138686 1.58887 0 -0.5 -4.03543 0.015 0 0 -0.346714 0.0353429 
323 1 -0.131477 0.207813 1.58706 0 -0.5 -4.03984 0.025 0 0 -1.60516 0.163625 
406 1 -0.0920408 0.311666 1.59644 0 -0.5 -4.01699 0.015 0 0 -0.346714 0.0353429 
331 1 -0.138106 0.079831 1.64461 0 -0.5 -3.8976 0.025 0 0 -1.60516 0.163625 
418 1 -0.0554251 0.0849403 1.63258 0 -0.5 -3.92771 0.015 0 0 -0.346714 0.0353429 
395 1 -0.110093 0.135872 1.6389 0 -0.5 -3.91192 0.015 0 0 -0.346714 0.0353429 
318 1 -0.126425 0.285158 1.63043 0 -0.5 -3.93311 0.025 0 0 -1.60516 0.163625 
336 1 -0.025747 0.318523 1.63811 0 -0.5 -3.91388 0.025 0 0 -1.60516 0.163625 
313 1 -0.0392615 0.123689 1.65664 0 -0.5 -3.86719 0.025 0 0 -1.60516 0.163625 
374 1 -0.133879 0.345467 1.65876 0 -0.5 -3.86179 0.015 0 0 -0.346714 0.0353429 
310 1 -0.0919271 0.355993 1.67524 0 -0.5 -3.81971 0.025 0 0 -1.60516 0.163625 
315 1 -0.0970947 0.190406 1.67786 0 -0.5 -3.81294 0.025 0 0 -1.60516 0.163625 
445 1 -0.0938501 0.260643 1.69191 0 -0.5 -3.77664 0.015 0 0 -0.346714 0.0353429 
407 1 -0.0713596 0.318089 1.67917 0 -0.5 -3.8096 0.015 0 0 -0.346714 0.0353429 
377 1 -0.128279 0.10772 1.71295 0 -0.5 -3.72161 0.015 0 0 -0.346714 0.0353429 
344 1 -0.147144 0.261445 1.72745 0 -0.5 -3.68315 0.025 0 0 -1.60516 0.163625 
386 1 -0.118095 0.32911 1.70936 0 -0.5 -3.73102 0.015 0 0 -0.346714 0.0353429 
302 1 -0.0567477 0.105316 1.74436 0 -0.5 -3.63783 0.025 0 0 -1.60516 0.163625 
401 1 -0.0913429 0.13678 1.74258 0 -0.5 -3.64264 0.015 0 0 -0.346714 0.0353429 
314 1 -0.136534 0.173236 1.75241 0 -0.5 -3.61605 0.025 0 0 -1.60516 0.163625 
439 1 -0.132801 0.223897 1.73988 0 -0.5 -3.64989 0.015 0 0 -0.346714 0.0353429 
413 1 -0.0512121 0.322816 1.7659 0 -0.5 -3.57926 0.015 0 0 -0.346714 0.0353429 
442 1 -0.149932 0.382171 1.7671 0 -0.5 -3.57603 0.015 0 0 -0.346714 0.0353429 
431 1 -0.13363 0.133651 1.77791 0 -0.5 -3.5462 0.015 0 0 -0.346714 0.0353429 
355 1 -0.0483468 0.152759 1.77141 0 -0.5 -3.56416 0.015 0 0 -0.346714 0.0353429 
446 1 -0.116317 0.290626 1.79695 0 -0.5 -3.49313 0.015 0 0 -0.346714 0.0353429 
354 1 -0.0927402 0.321498 1.7765 0 -0.5 -3.55013 0.015 0 0 -0.346714 0.0353429 
382 1 -0.108066 0.405945 1.79785 0.026541 -0.439017 -3.58935 0.015 0 0 -0.346714 0.0353429 
408 1 -0.087028 0.390439 1.77518 0 -0.5 -3.55376 0.015 0 0 -0.346714 0.0353429 
411 1 -0.0485728 0.373056 1.80396 0 -0.5 -3.47341 0.015 0 0 -0.346714 0.0353429 
324 1 -0.0498553 0.110703 1.8526 0 -0.5 -3.33323 0.025 0 0 -1.60516 0.163625 
350 1 -0.147794 0.143395 1.84406 0 -0.5 -3.35824 0.025 0 0 -1.60516 0.163625 
399 1 -0.074527 0.156048 1.83387 0 -0.5 -3.38787 0.015 0 0 -0.346714 0.0353429 
335 1 -0.126459 0.204418 1.84387 0 -0.5 -3.35883 0.025 0 0 -1.60516 0.163625 
437 1 -0.0723044 0.187232 1.85915 0 -0.5 -3.3139 0.015 0 0 -0.346714 0.0353429 
436 1 -0.0854574 0.210951 1.83329 0 -0.5 -3.38954 0.015 0 0 -0.346714 0.0353429 
341 1 -0.148816 0.324228 1.83567 0 -0.5 -3.38267 0.025 0 0 -1.60516 0.163625 
385 1 -0.0696212 0.333365 1.84976 0 -0.5 -3.34157 0.015 0 0 -0.346714 0.0353429 
384 1 -0.16042 0.410778 1.84772 -0.135564 -0.440896 -3.37267 0.015 0 0 -0.346714 0.0353429 
389 1 -0.0230912 0.397676 1.83669 0 -0.5 -3.37973 0.015 0 0 -0.346714 0.0353429 
427 1 -0.104646 0.425558 1.83303 0.0988458 -0.172977 -3.62658 0.015 0 0 -0.346714 0.0353429 
367 1 -0.106717 0.167831 1.8895 0 -0.5 -3.22277 0.015 0 0 -0.346714 0.0353429 
394 1 -0.145405 0.362684 1.87972 0 -0.5 -3.25239 0.015 0 0 -0.346714 0.0353429 
426 1 -0.0179373 0.392964 1.88915 0 -0.5 -3.22385 0.015 0 0 -0.346714 0.0353429 
358 1 -0.127277 0.134792 1.90168 0 -0.5 -3.18549 0.015 0 0 -0.346714 0.0353429 
376 1 -0.0824761 0.179772 1.91896 0 -0.5 -3.13183 0.015 0 0 -0.346714 0.0353429 
326 1 -0.145564 0.264454 1.90315 0 -0.5 -3.18098 0.025 0 0 -1.60516 0.163625 
424 1 -0.126306 0.38354 1.89619 -0.0730123 -0.390635 -3.21402 0.015 0 0 -0.346714 0.0353429 
319 1 -0.0687817 0.414025 1.89941 0 -0.5 -3.19245 0.025 0 0 -1.60516 0.163625 
433 1 -0.118613 0.120665 1.93968 0 -0.5 -3.0662 0.015 0 0 -0.346714 0.0353429 
420 1 -0.037203 0.128826 1.9427 0 -0.5 -3.05659 0.015 0 0 -0.346714 0.0353429 
402 1 -0.101682 0.164287 1.94559 0 -0.5 -3.04727 0.015 0 0 -0.346714 0.0353429 
306 1 -0.116739 0.342034 1.94464 0 -0.5 -3.05031 0.025 0 0 -1.60516 0.163625 
412 1 -0.0937388 0.412584 1.94936 0 -0.5 -3.0351 0.015 0 0 -0.346714 0.0353429 
363 1 -0.0911777 0.241327 1.96432 0 -0.5 -2.98635 0.015 0 0 -0.346714 0.0353429 
360 1 -0.116599 0.265221 1.96302 0 -0.5 -2.99066 0.015 0 0 -0.346714 0.0353429 
397 1 -0.0557758 0.353618 1.96736 0 -0.5 -2.97634 0.015 0 0 -0.346714 0.0353429 
371 1 -0.0449321 0.392104 1.96166 0 -0.5 -2.99508 0.015 0 0 -0.346714 0.0353429 
322 1 -0.131733 0.151564 1.98877 0 -0.5 -2.90492 0.025 0 0 -1.60516 0.163625 
308 1 -0.0769103 0.168817 2.01595 -0.0168546 -0.516386 -2.80929 0.025 0 0 -1.60516 0.163625 
398 1 -0.0227099 0.225711 2.00153 0.308366 -0.162474 -2.90879 0.015 0 0 -0.346714 0.0353429 
373 1 -0.136858 0.298184 1.9959 0 -0.5 -2.88079 0.015 0 0 -0.346714 0.0353429 
396 1 -0.0958984 0.31866 1.99041 0 -0.5 -2.89943 0.015 0 0 -0.346714 0.0353429 
369 1 -0.138958 0.356563 1.99808 0 -0.5 -2.87334 0.015 0 0 -0.346714 0.0353429 
381 1 -0.0827007 0.387114 1.98613 0 -0.5 -2.91385 0.015 0 0 -0.346714 0.0353429 
383 1 -0.0262689 0.374803 1.99892 0 -0.5 -2.87049 0.015 0 0 -0.346714 0.0353429 
415 1 -0.127182 0.20213 2.03279 0 -0.5 -2.75228 0.015 0 0 -0.346714 0.0353429 
343 1 -0.140775 0.260899 2.0382 0 -0.5 -2.73295 0.025 0 0 -1.60516 0.163625 
438 1 -0.0987495 0.250333 2.01705 0 -0.5 -2.8078 0.015 0 0 -0.346714 0.0353429 
356 1 -0.111476 0.293564 2.02245 0 -0.5 -2.78887 0.015 0 0 -0.346714 0.0353429 
443 1 -0.0906469 0.348658 2.03123 0 -0.5 -2.75777 0.015 0 0 -0.346714 0.0353429 
349 1 -0.116564 0.380594 2.04122 0 -0.5 -2.72207 0.025 0 0 -1.60516 0.163625 
351 1 -0.0409452 0.379112 2.04475 0 -0.5 -2.70931 0.015 0 0 -0.346714 0.0353429 
340 1 -0.149237 0.421237 2.02206 0 -0.5 -2.79024 0.025 0 0 -1.60516 0.163625 
390 1 -0.0988461 0.16259 2.06116 0 -0.5 -2.64918 0.015 0 0 -0.346714 0.0353429 
448 1 -0.0329565 0.17157 2.07776 0 -0.5 -2.58698 0.015 0 0 -0.346714 0.0353429 
419 1 -0.111609 0.153519 2.10038 0 -0.5 -2.49977 0.015 0 0 -0.346714 0.0353429 
362 1 -0.0154426 0.203609 2.09827 0 -0.5 -2.50801 0.015 0 0 -0.346714 0.0353429 
347 1 -0.0548177 0.20889 2.08205 0 -0.5 -2.5707 0.025 0 0 -1.60516 0.163625 
378 1 -0.121409 0.257198 2.08704 0 -0.5 -2.55157 0.015 0 0 -0.346714 0.0353429 
312 1 -0.134707 0.316718 2.08787 0 -0.5 -2.54843 0.025 0 0 -1.60516 0.163625 
359 1 -0.107325 0.361399 2.09334 0 -0.5 -2.52724 0.015 0 0 -0.346714 0.0353429 
303 1 -0.0551599 0.380479 2.09858 0 -0.5 -2.50683 0.025 0 0 -1.60516 0.163625 
334 1 -0.103439 0.416448 2.10633 0 -0.5 -2.47632 0.025 0 0 -1.60516 0.163625 
417 1 -0.0160313 0.416054 2.08786 0 -0.5 -2.54843 0.015 0 0 -0.346714 0.0353429 
346 1 -0.150674 0.445449 2.09038 -0.0151472 -0.325165 -2.60686 0.025 0 0 -1.60516 0.163625 
421 1 -0.0930175 0.233542 2.11075 0 -0.5 -2.45876 0.015 0 0 -0.346714 0.0353429 
325 1 -0.117824 0.277025 2.13737 0 -0.5 -2.35017 0.025 0 0 -1.60516 0.163625 
365 1 -0.145492 0.388419 2.12355 0.0322739 -0.84426 -2.27158 0.015 0 0 -0.346714 0.0353429 
309 1 -0.144284 0.192031 2.15862 0 -0.5 -2.25972 0.025 0 0 -1.60516 0.163625 
320 1 -0.0648735 0.192929 2.1476 0 -0.5 -2.307 0.025 0 0 -1.60516 0.163625 
430 1 -0.123083 0.239393 2.16598 0 -0.5 -2.22744 0.015 0 0 -0.346714 0.0353429 
403 1 -0.0833248 0.245397 2.16815 0 -0.5 -2.21793 0.015 0 0 -0.346714 0.0353429 
387 1 -0.0901615 0.354452 2.16101 0 -0.5 -2.24932 0.015 0 0 -0.346714 0.0353429 
372 1 -0.0702168 0.376237 2.15147 0 -0.5 -2.29052 0.015 0 0 -0.346714 0.0353429 
338 1 -0.0583644 0.445556 2.15996 0 -0.5 -2.25383 0.025 0 0 -1.60516 0.163625 
447 1 -0.122284 0.457789 2.14823 0 -0.5 -2.30436 0.015 0 0 -0.346714 0.0353429 
316 1 -0.0983119 0.178111 2.20222 0 -0.5 -2.06175 0.025 0 0 -1.60516 0.163625 
379 1 -0.0327871 0.194329 2.17853 0 -0.5 -2.17153 0.015 0 0 -0.346714 0.0353429 
357 1 -0.0584785 0.243214 2.1979 0 -0.5 -2.08216 0.015 0 0 -0.346714 0.0353429 
393 1 -0.015571 0.416279 2.17595 0 -0.5 -2.1832 0.015 0 0 -0.346714 0.0353429 
329 1 -0.123538 0.453741 2.20061 -0.0138124 -0.485935 -2.06954 0.025 0.0143804 -0.0145551 -1.60307 0.163625 
364 1 -0.0453235 0.208807 2.21056 0 -0.5 -2.02163 0.015 0 0 -0.346714 0.0353429 
321 1 -0.126579 0.249251 2.21125 0 -0.5 -2.0183 0.025 0 0 -1.60516 0.163625 
410 1 -0.145474 0.298536 2.21435 0 -0.5 -2.00319 0.015 0 0 -0.346714 0.0353429 
333 1 -0.0978849 0.311337 2.21191 0 -0.5 -2.01506 0.025 0 0 -1.60516 0.163625 
380 1 -0.127355 0.353976 2.20723 0 -0.5 -2.03772 0.015 0 0 -0.346714 0.0353429 
337 1 -0.142368 0.393123 2.22188 -0 0 -2 0.025 0 0 0 0.163625 
301 1 -0.0883728 0.418299 2.20319 0.0121603 -0.512221 -2.05712 0.025 -0.0143804 0.0145551 -1.60724 0.163625 
428 1 -0.0387226 0.428002 2.20653 0 -0.5 -2.04115 0.015 0 0 -0.346714 0.0353429 
450 1 -0.0322061 0.472898 2.20738 0 -0.5 -2.03703 0.015 0 0 -0.346714 0.0353429 
425 1 -0.074083 0.175677 2.25945 -0 0 -2 0.015 0 0 0 0.0353429 
332 1 -0.0814262 0.231721 2.24918 -0 0 -2 0.025 0 0 0 0.163625 
400 1 -0.135353 0.274705 2.25182 -0 0 -2 0.015 0 0 0 0.0353429 
366 1 -0.144217 0.391047 2.26291 -0 0 -2 0.015 0 0 0 0.0353429 
339 1 -0.0802774 0.437645 2.25907 -0 0 -2 0.025 0 0 0 0.163625 
305 1 -0.0452536 0.474362 2.25945 -0 0 -2 0.025 0 0 0 0.163625 
404 1 -0.119976 0.192749 2.27539 -0 0 -2 0.015 0 0 0 0.0353429 
311 1 -0.0354402 0.189328 2.26716 -0 0 -2 0.025 0 0 0 0.163625 
345 1 -0.128178 0.236209 2.27286 -0 0 -2 0.025 0 0 0 0.163625 
435 1 -0.0960728 0.272801 2.27572 -0 0 -2 0.015 0 0 0 0.0353429 
317 1 -0.129905 0.313645 2.26465 -0 0 -2 0.025 0 0 0 0.163625 
405 1 -0.038992 0.42438 2.26704 -0 0 -2 0.015 0 0 0 0.0353429 
444 1 -0.0159467 0.465681 2.2876 -0 0 -2 0.015 0 0 0 0.0353429 
289 1 0.103201 0.217629 -0.640162 0.0203384 -0.134604 -7.86223 0.015 0 0 -0.346714 0.0353429 
284 1 0.0635348 -0.116728 -0.461332 -0.0310215 -0.613333 -7.55695 0.015 0 0 -0.346714 0.0353429 
203 1 0.0667127 -0.100767 -0.400687 0 -0.5 -7.43773 0.015 0 0 -0.346714 0.0353429 
206 1 0.111305 -0.0804172 -0.411036 0.057048 -0.582454 -7.48141 0.015 0 0 -0.346714 0.0353429 
199 1 0.0893027 0.0898432 -0.424768 -0.00278668 -0.321029 -7.53389 0.025 0 0 -1.60516 0.163625 
213 1 0.0350777 0.13857 -0.400477 0 -0.5 -7.43744 0.015 0 0 -0.346714 0.0353429 
272 1 0.0168276 0.173548 -0.407308 0 -0.5 -7.44646 0.015 0 0 -0.346714 0.0353429 
237 1 0.144037 -0.0304518 -0.368231 0.0724848 -0.475593 -7.38641 0.015 0 0 -0.346714 0.0353429 
214 1 0.144386 0.0857332 -0.386878 0 -0.5 -7.41949 0.015 0 0 -0.346714 0.0353429 
171 1 0.0990176 0.102847 -0.369337 0.0549768 -0.472606 -7.46272 0.025 0 0 -1.60516 0.163625 
226 1 0.110692 0.147304 -0.371898 0 -0.5 -7.39967 0.015 0 0 -0.346714 0.0353429 
241 1 0.0849537 0.169018 -0.380272 0 -0.5 -7.41075 0.015 0 0 -0.346714 0.0353429 
263 1 0.025742 -0.0395063 -0.346518 0 -0.5 -7.36592 0.015 0 0 -0.346714 0.0353429 
259 1 0.149131 -0.0601735 -0.36377 0 -0.5 -7.38888 0.015 0 0 -0.346714 0.0353429 
116 1 0.0812645 0.0959482 -0.314254 0.110827 -0.413989 -7.08622 0.015 0 0 -0.346714 0.0353429 
177 1 0.182354 0.0928847 -0.30809 0.112606 -0.398162 -7.31872 0.025 0 0 -1.60516 0.163625 
220 1 0.00386569 -0.0956016 -0.304096 -0.0669262 -0.554313 -7.30371 0.015 0 0 -0.346714 0.0353429 
166 1 0.0609489 0.203253 -0.246869 0 -0.5 -7.23202 0.025 0 0 -1.60516 0.163625 
184 1 0.11251 0.201841 -0.255638 0 -0.5 -7.24389 0.025 0 0 -1.60516 0.163625 
249 1 0.0491797 0.139421 -0.222639 0 -0.5 -7.19905 0.015 0 0 -0.346714 0.0353429 
290 1 0.159243 0.171802 -0.239682 0.0439512 -0.299137 -7.19236 0.015 0 0 -0.346714 0.0353429 
270 1 0.0946744 0.131669 -0.203734 0 -0.5 -7.17325 0.015 0 0 -0.346714 0.0353429 
216 1 0.100117 -0.0876118 -0.159865 0.0481324 -0.610657 -7.09609 0.015 0 0 -0.346714 0.0353429 
222 1 0.123753 -0.0583386 -0.17527 0 -0.5 -7.13421 0.015 0 0 -0.346714 0.0353429 
294 1 0.128315 0.164152 -0.181261 0 -0.5 -7.14245 0.015 0 0 -0.346714 0.0353429 
231 1 0.0350342 0.16162 -0.124496 0 -0.5 -7.06407 0.015 0 0 -0.346714 0.0353429 
170 1 0.214863 0.151896 -0.14643 0.161731 -0.381986 -7.10579 0.025 0 0 -1.60516 0.163625 
180 1 0.0341881 -0.043629 -0.118947 -0.021889 -0.504465 -7.0515 0.025 0 0 -1.60516 0.163625 
253 1 0.123075 0.0490692 -0.116385 0 -0.5 -7.05279 0.015 0 0 -0.346714 0.0353429 
169 1 0.0892107 0.170668 -0.0926673 0 -0.5 -7.01973 0.025 0 0 -1.60516 0.163625 
209 1 0.0969746 -0.0627524 -0.0516352 0 -0.5 -6.96214 0.015 0 0 -0.346714 0.0353429 
278 1 0.113612 0.0719651 -0.003005 0 -0.5 -6.89328 0.015 0 0 -0.346714 0.0353429 
257 1 0.139837 0.184641 -0.00230825 0 -0.5 -6.8923 0.015 0 0 -0.346714 0.0353429 
296 1 0.146983 0.053001 -0.00038565 0 -0.5 -6.88955 0.015 0 0 -0.346714 0.0353429 
168 1 0.0261487 -0.0258963 0.0550339 0 -0.5 -6.81019 0.025 0 0 -1.60516 0.163625 
269 1 0.141487 -0.0304957 0.0509404 0 -0.5 -6.81607 0.015 0 0 -0.346714 0.0353429 
162 1 0.0478022 0.174457 0.0436464 0 -0.5 -6.82657 0.025 0 0 -1.60516 0.163625 
235 1 0.134937 -0.0596153 0.072293 0 -0.5 -6.78527 0.015 0 0 -0.346714 0.0353429 
185 1 0.0936576 0.0186661 0.0821325 0 -0.5 -6.77104 0.025 0 0 -1.60516 0.163625 
217 1 0.133752 0.0196912 0.0701245 0 -0.5 -6.78841 0.015 0 0 -0.346714 0.0353429 
182 1 0.114565 0.129779 0.0646941 0 -0.5 -6.79626 0.025 0 0 -1.60516 0.163625 
176 1 0.0399362 0.226472 0.0702514 0 -0.5 -6.78821 0.025 0 0 -1.60516 0.163625 
286 1 0.147755 0.21887 0.0686293 0 -0.5 -6.79057 0.015 0 0 -0.346714 0.0353429 
153 1 0.0895866 -0.0652402 0.117733 0 -0.5 -6.71925 0.025 0 0 -1.60516 0.163625 
211 1 0.0694768 -0.0070284 0.145941 0 -0.5 -6.67795 0.015 0 0 -0.346714 0.0353429 
251 1 0.126174 0.0875588 0.136241 0 -0.5 -6.69217 0.015 0 0 -0.346714 0.0353429 
291 1 0.140432 0.163523 0.16732 0 -0.5 -6.64646 0.015 0 0 -0.346714 0.0353429 
159 1 0.087245 0.222208 0.169253 0 -0.5 -6.64361 0.025 0 0 -1.60516 0.163625 
204 1 0.134881 -0.0187519 0.202473 0 -0.5 -6.59437 0.015 0 0 -0.346714 0.0353429 
161 1 0.135356 0.0388496 0.200966 0 -0.5 -6.59662 0.025 0 0 -1.60516 0.163625 
300 1 0.149285 0.21624 0.187823 0 -0.5 -6.61614 0.015 0 0 -0.346714 0.0353429 
230 1 0.118982 0.0793718 0.226488 0 -0.5 -6.55856 0.015 0 0 -0.346714 0.0353429 
228 1 0.0279693 0.188593 0.212564 0 -0.5 -6.57936 0.015 0 0 -0.346714 0.0353429 
175 1 0.0941494 -0.0259412 0.254853 0 -0.5 -6.51598 0.025 0 0 -1.60516 0.163625 
192 1 0.134392 0.137049 0.290029 0 -0.5 -6.46281 0.025 0 0 -1.60516 0.163625 
285 1 0.0870748 0.174259 0.292481 0 -0.5 -6.45909 0.015 0 0 -0.346714 0.0353429 
256 1 0.0868225 0.206057 0.284458 0 -0.5 -6.47125 0.015 0 0 -0.346714 0.0353429 
240 1 0.0956629 0.23788 0.297063 0 -0.5 -6.45212 0.015 0 0 -0.346714 0.0353429 
250 1 0.138716 0.220193 0.280574 0 -0.5 -6.47714 0.015 0 0 -0.346714 0.0353429 
246 1 0.0494565 0.24101 0.29358 0 -0.5 -6.45742 0.015 0 0 -0.346714 0.0353429 
299 1 0.0153001 -0.00245878 0.31586 0 -0.5 -6.42348 0.015 0 0 -0.346714 0.0353429 
293 1 0.0548164 0.0131452 0.304161 0 -0.5 -6.44133 0.015 0 0 -0.346714 0.0353429 
275 1 0.0211058 0.220962 0.313285 0 -0.5 -6.4274 0.015 0 0 -0.346714 0.0353429 
202 1 0.126943 -0.0278811 0.358992 0 -0.5 -6.35726 0.015 0 0 -0.346714 0.0353429 
200 1 0.112803 0.030149 0.340085 0 -0.5 -6.38639 0.025 0 0 -1.60516 0.163625 