ITEM: TIMESTEP
48000
ITEM: NUMBER OF ATOMS
600
ITEM: BOX BOUNDS mm mm mm
-1 1
-1 1
-0.05 2.85
ITEM: ATOMS id type x y z vx vy vz radius fx fy fz mass 
68 1 -0.0997213 0.00527136 0.184769 0 -0.5 -6.62066 0.015 0 0 -0.346714 0.0353429 
45 1 -0.0943793 -0.0437624 0.218928 0 -0.5 -6.56984 0.025 0 0 -1.60516 0.163625 
122 1 -0.0691175 0.010769 0.219542 0.00811842 -0.517403 -6.56822 0.015 0 0 -0.346714 0.0353429 
137 1 -0.0896304 0.0549334 0.200734 -0.00924354 -0.479856 -6.5978 0.015 0 0 -0.346714 0.0353429 
33 1 -0.129286 0.196605 0.211628 0 -0.5 -6.58073 0.025 0 0 -1.60516 0.163625 
43 1 -0.116198 0.107785 0.244218 0 -0.5 -6.53197 0.025 0 0 -1.60516 0.163625 
111 1 -0.0487783 0.2401 0.244934 0 -0.5 -6.5309 0.015 0 0 -0.346714 0.0353429 
119 1 -0.0370509 -0.0548114 0.25421 0 -0.5 -6.51697 0.015 0 0 -0.346714 0.0353429 
89 1 -0.129145 0.0243079 0.282589 0 -0.5 -6.4741 0.015 0 0 -0.346714 0.0353429 
75 1 -0.0493142 -0.0043279 0.274933 0 -0.5 -6.48567 0.015 0 0 -0.346714 0.0353429 
78 1 -0.0422369 0.203955 0.263508 0 -0.5 -6.50294 0.015 0 0 -0.346714 0.0353429 
59 1 -0.0865612 0.152868 0.299515 0 -0.5 -6.44839 0.015 0 0 -0.346714 0.0353429 
92 1 -0.131017 0.247327 0.317415 0 -0.5 -6.42112 0.015 0 0 -0.346714 0.0353429 
26 1 -0.0508773 0.0911808 0.364243 0.14857 -0.341553 -6.39017 0.025 0 0 -1.60516 0.163625 
8 1 -0.104188 -0.036537 0.403375 0 -0.5 -6.28839 0.025 0 0 -1.60516 0.163625 
98 1 -0.147127 0.0964418 0.383464 0 -0.5 -6.31939 0.015 0 0 -0.346714 0.0353429 
151 1 -0.0686397 0.178527 0.382779 0 -0.5 -6.32047 0.015 0 0 -0.346714 0.0353429 
3 1 -0.141317 0.161388 0.412501 0 -0.5 -6.27417 0.025 0 0 -1.60516 0.163625 
72 1 -0.105673 0.198796 0.428209 0 -0.5 -6.24954 0.015 0 0 -0.346714 0.0353429 
100 1 -0.0681017 0.031921 0.450841 0 -0.5 -6.21393 0.015 0 0 -0.346714 0.0353429 
140 1 -0.125739 0.0735564 0.445178 0 -0.5 -6.22286 0.015 0 0 -0.346714 0.0353429 
118 1 -0.0372647 0.233681 0.456798 0 -0.5 -6.20452 0.015 0 0 -0.346714 0.0353429 
40 1 -0.104474 0.250198 0.446478 0 -0.5 -6.2208 0.025 0 0 -1.60516 0.163625 
117 1 -0.0596227 -0.0249792 0.474251 0 -0.5 -6.17685 0.015 0 0 -0.346714 0.0353429 
148 1 -0.177441 0.115128 0.495007 -0.171679 -0.397353 -6.22619 0.015 0 0 -0.346714 0.0353429 
51 1 -0.159812 -0.0115658 0.503069 -0.0265052 -0.519812 -6.12495 0.025 0 0 -1.60516 0.163625 
282 1 -0.0103148 0.0407735 0.507432 -0.2609 -0.673185 -6.10477 0.015 0 0 -0.346714 0.0353429 
11 1 -0.0983396 0.145549 0.55607 0.022917 -0.457889 -6.06367 0.025 0 0 -1.60516 0.163625 
90 1 -0.146535 0.251667 0.54045 0 -0.5 -6.07081 0.015 0 0 -0.346714 0.0353429 
60 1 -0.0770515 -0.0160724 0.562835 0 -0.5 -6.03451 0.015 0 0 -0.346714 0.0353429 
50 1 -0.130982 0.208355 0.564471 0 -0.5 -6.03186 0.025 0 0 -1.60516 0.163625 
105 1 -0.208713 0.141968 0.609667 -0.321192 -0.368687 -5.94738 0.015 0 0 -0.346714 0.0353429 
74 1 -0.0790012 0.195893 0.60127 0 -0.5 -5.97173 0.015 0 0 -0.346714 0.0353429 
76 1 -0.0202065 0.22407 0.618006 0 -0.5 -5.94416 0.015 0 0 -0.346714 0.0353429 
44 1 -0.125916 -0.0244035 0.629155 0 -0.5 -5.92572 0.025 0 0 -1.60516 0.163625 
29 1 -0.0788351 0.238182 0.645415 0 -0.5 -5.89874 0.025 0 0 -1.60516 0.163625 
36 1 -0.103411 0.0223125 0.651718 0 -0.5 -5.88824 0.025 0 0 -1.60516 0.163625 
54 1 -0.162703 0.0557909 0.674351 -0.0956439 -0.529683 -5.83694 0.015 0 0 -0.346714 0.0353429 
114 1 -0.0720461 0.0524719 0.688935 -0.00040144 -0.499666 -5.82603 0.015 0 0 -0.346714 0.0353429 
73 1 -0.0639552 0.00176667 0.720593 0 -0.5 -5.77239 0.015 0 0 -0.346714 0.0353429 
2 1 -0.110349 0.149071 0.72658 0 -0.5 -5.76218 0.025 0 0 -1.60516 0.163625 
12 1 -0.0363281 0.258336 0.7424 0 -0.5 -5.73521 0.025 0 0 -1.60516 0.163625 
113 1 -0.118506 0.273198 0.713933 0 -0.5 -5.78367 0.015 0 0 -0.346714 0.0353429 
146 1 -0.109965 -0.0110837 0.743991 0 -0.5 -5.73246 0.015 0 0 -0.346714 0.0353429 
57 1 -0.120673 0.105061 0.772302 0 -0.5 -5.6838 0.015 0 0 -0.346714 0.0353429 
88 1 -0.0666498 0.215919 0.760872 0 -0.5 -5.70352 0.015 0 0 -0.346714 0.0353429 
99 1 -0.146283 0.0535171 0.785644 0 -0.5 -5.66075 0.015 0 0 -0.346714 0.0353429 
10 1 -0.0726357 0.215244 0.801421 0.0635655 -0.375939 -5.71744 0.025 0 0 -1.60516 0.163625 
66 1 -0.0281121 0.0408228 0.830554 0 -0.5 -5.58237 0.015 0 0 -0.346714 0.0353429 
83 1 -0.108229 0.083146 0.822397 0 -0.5 -5.59669 0.015 0 0 -0.346714 0.0353429 
19 1 -0.0715757 0.0632524 0.826358 0 -0.5 -5.58972 0.025 0 0 -1.60516 0.163625 
34 1 -0.138562 0.222511 0.816402 0 -0.5 -5.60719 0.025 0 0 -1.60516 0.163625 
67 1 -0.0183057 -0.00361132 0.858002 0 -0.5 -5.53391 0.015 0 0 -0.346714 0.0353429 
81 1 -0.0434956 0.230318 0.839255 0.07636 -0.438847 -5.52988 0.015 0 0 -0.346714 0.0353429 
71 1 -0.145263 0.266198 0.839315 0 -0.5 -5.56697 0.015 0 0 -0.346714 0.0353429 
24 1 -0.138394 0.0234519 0.871428 0 -0.5 -5.51007 0.025 0 0 -1.60516 0.163625 
133 1 -0.127566 0.139944 0.880893 0 -0.5 -5.49319 0.015 0 0 -0.346714 0.0353429 
95 1 -0.10482 0.227312 0.884674 0 -0.5 -5.48642 0.015 0 0 -0.346714 0.0353429 
39 1 -0.0696793 0.27701 0.884797 0 -0.5 -5.48623 0.025 0 0 -1.60516 0.163625 
70 1 -0.107191 0.0499244 0.924517 0 -0.5 -5.41471 0.015 0 0 -0.346714 0.0353429 
103 1 -0.135939 0.0677223 0.911338 0 -0.5 -5.43855 0.015 0 0 -0.346714 0.0353429 
143 1 -0.11631 0.285682 0.920732 0 -0.5 -5.42158 0.015 0 0 -0.346714 0.0353429 
28 1 -0.0685748 0.0260701 0.951532 0 -0.5 -5.36557 0.025 0 0 -1.60516 0.163625 
97 1 -0.0338223 0.053144 0.941857 0 -0.5 -5.38322 0.015 0 0 -0.346714 0.0353429 
115 1 -0.076478 0.0884311 0.942293 0 -0.5 -5.38244 0.015 0 0 -0.346714 0.0353429 
85 1 -0.13789 0.210015 0.944871 0 -0.5 -5.37773 0.015 0 0 -0.346714 0.0353429 
126 1 -0.121061 0.137161 0.973959 -0.0288748 -0.539424 -5.30107 0.015 0 0 -0.346714 0.0353429 
134 1 -0.137197 0.250367 0.962073 0 -0.5 -5.34624 0.015 0 0 -0.346714 0.0353429 
77 1 -0.0297287 0.278749 0.969599 0 -0.5 -5.33241 0.015 0 0 -0.346714 0.0353429 
120 1 -0.148569 0.299261 0.971747 0 -0.5 -5.32848 0.015 0 0 -0.346714 0.0353429 
96 1 -0.131998 0.0530814 0.99028 0 -0.5 -5.29425 0.015 0 0 -0.346714 0.0353429 
38 1 -0.121616 0.0941879 1.01185 0 -0.5 -5.25412 0.025 0 0 -1.60516 0.163625 
150 1 -0.100106 0.0652069 1.07512 0 -0.5 -5.13464 0.015 0 0 -0.346714 0.0353429 
130 1 -0.0642546 0.0884407 1.05186 0 -0.5 -5.17888 0.015 0 0 -0.346714 0.0353429 
23 1 -0.134189 0.230519 1.05093 0 -0.5 -5.18065 0.025 0 0 -1.60516 0.163625 
18 1 -0.106015 0.295686 1.07639 0 -0.5 -5.13219 0.025 0 0 -1.60516 0.163625 
4 1 -0.0330873 0.308857 1.07559 0 -0.5 -5.13376 0.025 0 0 -1.60516 0.163625 
31 1 -0.140814 0.0308773 1.09007 0 -0.5 -5.10599 0.025 0 0 -1.60516 0.163625 
106 1 -0.131476 0.376861 1.10781 -0.0998962 -0.230395 -5.21473 0.015 0 0 -0.346714 0.0353429 
110 1 -0.0868918 0.0204165 1.11694 0 -0.5 -5.0541 0.015 0 0 -0.346714 0.0353429 
93 1 -0.0244706 0.0321578 1.1305 0 -0.5 -5.02771 0.015 0 0 -0.346714 0.0353429 
17 1 -0.134634 0.146027 1.13733 0 -0.5 -5.01437 0.025 0 0 -1.60516 0.163625 
136 1 -0.0832352 0.239008 1.13402 0 -0.5 -5.02084 0.015 0 0 -0.346714 0.0353429 
30 1 -0.0481876 0.266857 1.14189 0 -0.5 -5.00544 0.025 0 0 -1.60516 0.163625 
109 1 -0.0676248 0.31408 1.14083 0 -0.5 -5.0075 0.015 0 0 -0.346714 0.0353429 
108 1 -0.089121 0.0528235 1.18286 0 -0.5 -4.92451 0.015 0 0 -0.346714 0.0353429 
1 1 -0.148066 0.435643 1.18956 -0.021394 -0.0706631 -5.07969 0.025 0 0 -1.60516 0.163625 
69 1 -0.020474 0.0730825 1.20467 0 -0.5 -4.88085 0.015 0 0 -0.346714 0.0353429 
35 1 -0.146938 0.246792 1.21114 0 -0.5 -4.86781 0.025 0 0 -1.60516 0.163625 
102 1 -0.11709 0.0528995 1.24115 0 -0.5 -4.80698 0.015 0 0 -0.346714 0.0353429 
14 1 -0.0571303 0.0449755 1.25155 0 -0.5 -4.7857 0.025 0 0 -1.60516 0.163625 
139 1 -0.104092 0.110572 1.241 0 -0.5 -4.80728 0.015 0 0 -0.346714 0.0353429 
144 1 -0.0691235 0.113474 1.24009 0 -0.5 -4.80914 0.015 0 0 -0.346714 0.0353429 
149 1 -0.0587679 0.162443 1.25415 0.199959 -0.45766 -5.01445 0.015 0 0 -0.346714 0.0353429 
22 1 -0.102489 0.178306 1.23609 0 -0.5 -4.81728 0.025 0 0 -1.60516 0.163625 
55 1 -0.0959992 0.284398 1.25608 -7.52477e-06 -0.49998 -4.77641 0.015 0 0 -0.346714 0.0353429 
141 1 -0.136875 0.126264 1.26572 0 -0.5 -4.75656 0.015 0 0 -0.346714 0.0353429 
87 1 -0.113676 0.247588 1.29376 0 -0.5 -4.69839 0.015 0 0 -0.346714 0.0353429 
21 1 -0.0470047 0.3295 1.27965 0 -0.5 -4.72772 0.025 0 0 -1.60516 0.163625 
107 1 -0.141609 0.0419477 1.31885 0 -0.5 -4.64571 0.015 0 0 -0.346714 0.0353429 
94 1 -0.2091 0.235853 1.29936 -0.356499 -0.190573 -4.76395 0.015 0 0 -0.346714 0.0353429 
112 1 -0.073338 0.125279 1.34356 0 -0.5 -4.59322 0.015 0 0 -0.346714 0.0353429 
84 1 -0.116406 0.205786 1.3403 0 -0.5 -4.60019 0.015 0 0 -0.346714 0.0353429 
147 1 -0.100309 0.317431 1.33384 0 -0.5 -4.61392 0.015 0 0 -0.346714 0.0353429 
142 1 -0.0724928 0.0667478 1.36395 0 -0.5 -4.54947 0.015 0 0 -0.346714 0.0353429 
6 1 -0.0840894 0.105988 1.38615 0.101461 -0.428163 -4.50865 0.025 0 0 -1.60516 0.163625 
80 1 -0.102893 0.252893 1.38081 0 -0.5 -4.51298 0.015 0 0 -0.346714 0.0353429 
47 1 -0.140465 0.28945 1.36404 0 -0.5 -4.54928 0.025 0 0 -1.60516 0.163625 
145 1 -0.0934491 0.282113 1.36595 0 -0.5 -4.54516 0.015 0 0 -0.346714 0.0353429 
32 1 -0.164908 0.0503374 1.40979 -0.0613285 -0.540948 -4.44571 0.025 0 0 -1.60516 0.163625 
135 1 -0.140472 0.134893 1.40792 0 -0.5 -4.45363 0.015 0 0 -0.346714 0.0353429 
15 1 -0.0822377 0.205864 1.4123 0.0430154 -0.390763 -4.40145 0.025 0 0 -1.60516 0.163625 
62 1 -0.0849655 0.342406 1.40766 0 -0.5 -4.45422 0.015 0 0 -0.346714 0.0353429 
138 1 -0.0317395 0.0693156 1.42565 0 -0.5 -4.41439 0.015 0 0 -0.346714 0.0353429 
128 1 -0.145291 0.219677 1.42721 0 -0.5 -4.41095 0.015 0 0 -0.346714 0.0353429 
121 1 -0.0679495 0.324078 1.44587 0 -0.5 -4.36926 0.015 0 0 -0.346714 0.0353429 
280 1 -0.0361142 0.445238 1.43361 -0.323138 -0.0374805 -4.5163 0.015 0 0 -0.346714 0.0353429 
129 1 -0.0553418 0.0931994 1.47998 0 -0.5 -4.29196 0.015 0 0 -0.346714 0.0353429 
52 1 -0.100497 0.0784895 1.51156 0 -0.5 -4.21917 0.015 0 0 -0.346714 0.0353429 
61 1 -0.0231802 0.0629348 1.50396 0 -0.5 -4.23683 0.015 0 0 -0.346714 0.0353429 
79 1 -0.0179342 0.0969843 1.50403 0 -0.5 -4.23663 0.015 0 0 -0.346714 0.0353429 
13 1 -0.146779 0.175821 1.49351 0 -0.5 -4.26096 0.025 0 0 -1.60516 0.163625 
101 1 -0.102489 0.185824 1.48975 0 -0.5 -4.26959 0.015 0 0 -0.346714 0.0353429 
91 1 -0.124131 0.282132 1.50446 0 -0.5 -4.23565 0.015 0 0 -0.346714 0.0353429 
37 1 -0.0716655 0.288665 1.48923 0 -0.5 -4.27077 0.025 0 0 -1.60516 0.163625 
46 1 -0.032303 0.350569 1.49406 0 -0.5 -4.25968 0.025 0 0 -1.60516 0.163625 
5 1 -0.137704 0.106412 1.52141 0 -0.5 -4.19621 0.025 0 0 -1.60516 0.163625 
7 1 -0.0712578 0.145449 1.52447 0 -0.5 -4.18905 0.025 0 0 -1.60516 0.163625 
20 1 -0.124339 0.233888 1.51835 0 -0.5 -4.20338 0.025 0 0 -1.60516 0.163625 
58 1 -0.0969698 0.179891 1.5724 0 -0.5 -4.07526 0.015 0 0 -0.346714 0.0353429 
86 1 -0.142939 0.275059 1.5566 0 -0.5 -4.11312 0.015 0 0 -0.346714 0.0353429 
124 1 -0.136447 0.305377 1.57229 0 -0.5 -4.07555 0.015 0 0 -0.346714 0.0353429 
9 1 -0.0320364 0.309159 1.55973 0 -0.5 -4.10567 0.025 0 0 -1.60516 0.163625 
65 1 -0.147981 0.0830967 1.58486 0 -0.5 -4.04514 0.015 0 0 -0.346714 0.0353429 
41 1 -0.107908 0.360758 1.58252 0 -0.5 -4.05083 0.025 0 0 -1.60516 0.163625 
132 1 -0.0234712 0.116168 1.6353 0 -0.5 -3.92095 0.015 0 0 -0.346714 0.0353429 
48 1 -0.144727 0.173852 1.63458 0 -0.5 -3.92271 0.025 0 0 -1.60516 0.163625 
104 1 -0.138444 0.247217 1.61854 0 -0.5 -3.96264 0.015 0 0 -0.346714 0.0353429 
131 1 -0.025873 0.34804 1.60995 0 -0.5 -3.98383 0.015 0 0 -0.346714 0.0353429 
49 1 -0.0613084 0.0937105 1.65283 0 -0.5 -3.8768 0.025 0 0 -1.60516 0.163625 
53 1 -0.106432 0.21834 1.63648 0 -0.5 -3.918 0.015 0 0 -0.346714 0.0353429 
16 1 -0.129915 0.317079 1.6556 0 -0.5 -3.86984 0.025 0 0 -1.60516 0.163625 
82 1 -0.0851821 0.307627 1.6612 0 -0.5 -3.85561 0.015 0 0 -0.346714 0.0353429 
27 1 -0.0637137 0.343885 1.65617 0 -0.5 -3.86836 0.025 0 0 -1.60516 0.163625 
25 1 -0.104447 0.127785 1.69459 0 -0.5 -3.76967 0.025 0 0 -1.60516 0.163625 
127 1 -0.0304133 0.139621 1.68472 0 -0.5 -3.79528 0.015 0 0 -0.346714 0.0353429 
63 1 -0.147823 0.373713 1.66941 0 -0.5 -3.83462 0.015 0 0 -0.346714 0.0353429 
56 1 -0.11556 0.371119 1.68459 0 -0.5 -3.79557 0.015 0 0 -0.346714 0.0353429 
42 1 -0.132916 0.220796 1.70712 0 -0.5 -3.73691 0.025 0 0 -1.60516 0.163625 
123 1 -0.11925 0.277492 1.71029 0 -0.5 -3.72857 0.015 0 0 -0.346714 0.0353429 
64 1 -0.145219 0.341177 1.72228 0 -0.5 -3.69688 0.015 0 0 -0.346714 0.0353429 
125 1 -0.0960051 0.333127 1.72389 0 -0.5 -3.69267 0.015 0 0 -0.346714 0.0353429 
392 1 -0.0201822 0.0913766 1.7366 0 -0.5 -3.65872 0.015 0 0 -0.346714 0.0353429 
361 1 -0.0655065 0.119159 1.73447 0 -0.5 -3.66441 0.015 0 0 -0.346714 0.0353429 
375 1 -0.132504 0.156213 1.74251 0 -0.5 -3.64283 0.015 0 0 -0.346714 0.0353429 
353 1 -0.0778865 0.17251 1.75872 0 -0.5 -3.59888 0.015 0 0 -0.346714 0.0353429 
391 1 -0.0665259 0.31819 1.73564 0 -0.5 -3.66127 0.015 0 0 -0.346714 0.0353429 
370 1 -0.0476722 0.390061 1.75871 0 -0.5 -3.59898 0.015 0 0 -0.346714 0.0353429 
449 1 -0.121601 0.0969702 1.7782 0 -0.5 -3.54542 0.015 0 0 -0.346714 0.0353429 
432 1 -0.110656 0.232023 1.76901 0 -0.5 -3.57073 0.015 0 0 -0.346714 0.0353429 
423 1 -0.035066 0.336352 1.76763 0 -0.5 -3.57455 0.015 0 0 -0.346714 0.0353429 
348 1 -0.0456974 0.109422 1.79238 -0.0150753 -0.514502 -3.50127 0.025 0 0 -1.60516 0.163625 
409 1 -0.1116 0.204279 1.79849 0 -0.5 -3.48881 0.015 0 0 -0.346714 0.0353429 
304 1 -0.147639 0.330299 1.81815 0 -0.5 -3.43309 0.025 0 0 -1.60516 0.163625 
434 1 -0.110177 0.364235 1.79671 0 -0.5 -3.49382 0.015 0 0 -0.346714 0.0353429 
414 1 -0.12165 0.274412 1.84298 0 -0.5 -3.36138 0.015 0 0 -0.346714 0.0353429 
416 1 -0.148865 0.295752 1.85216 0 -0.5 -3.3345 0.015 0 0 -0.346714 0.0353429 
327 1 -0.047146 0.367396 1.83902 0 -0.5 -3.37296 0.025 0 0 -1.60516 0.163625 
307 1 -0.141488 0.136316 1.87615 0 -0.5 -3.26318 0.025 0 0 -1.60516 0.163625 
368 1 -0.0426125 0.142103 1.85595 0 -0.5 -3.32332 0.015 0 0 -0.346714 0.0353429 
328 1 -0.101567 0.16736 1.8678 0 -0.5 -3.2882 0.025 0 0 -1.60516 0.163625 
342 1 -0.0942786 0.318007 1.86867 0 -0.5 -3.28555 0.025 0 0 -1.60516 0.163625 
422 1 -0.0856494 0.358628 1.85463 0 -0.5 -3.32724 0.015 0 0 -0.346714 0.0353429 
441 1 -0.0895132 0.396957 1.87643 0 -0.5 -3.2623 0.015 0 0 -0.346714 0.0353429 
440 1 -0.074831 0.118633 1.88582 0 -0.5 -3.23395 0.015 0 0 -0.346714 0.0353429 
388 1 -0.0545692 0.182686 1.906 0 -0.5 -3.17215 0.015 0 0 -0.346714 0.0353429 
323 1 -0.131477 0.251813 1.90458 0 -0.5 -3.17656 0.025 0 0 -1.60516 0.163625 
352 1 -0.144025 0.355939 1.89363 0 -0.5 -3.21021 0.015 0 0 -0.346714 0.0353429 
406 1 -0.0920408 0.355666 1.91195 0 -0.5 -3.15371 0.015 0 0 -0.346714 0.0353429 
330 1 -0.125578 0.412028 1.89679 0 -0.5 -3.2005 0.025 0 0 -1.60516 0.163625 
418 1 -0.0554251 0.12894 1.94023 0 -0.5 -3.06443 0.015 0 0 -0.346714 0.0353429 
395 1 -0.110093 0.179872 1.94517 0 -0.5 -3.04864 0.015 0 0 -0.346714 0.0353429 
318 1 -0.126425 0.329158 1.93856 0 -0.5 -3.06983 0.025 0 0 -1.60516 0.163625 
336 1 -0.025747 0.362523 1.94455 0 -0.5 -3.0506 0.025 0 0 -1.60516 0.163625 
331 1 -0.138106 0.123831 1.94961 0 -0.5 -3.03432 0.025 0 0 -1.60516 0.163625 
313 1 -0.0392615 0.167689 1.95897 0 -0.5 -3.00391 0.025 0 0 -1.60516 0.163625 
315 1 -0.0970947 0.234406 1.97542 0 -0.5 -2.94966 0.025 0 0 -1.60516 0.163625 
407 1 -0.0713596 0.362089 1.97643 0 -0.5 -2.94632 0.015 0 0 -0.346714 0.0353429 
374 1 -0.133879 0.389467 1.96061 0 -0.5 -2.99851 0.015 0 0 -0.346714 0.0353429 
310 1 -0.0919271 0.399993 1.97339 0 -0.5 -2.95643 0.025 0 0 -1.60516 0.163625 
377 1 -0.128279 0.15172 2.00247 0 -0.5 -2.85833 0.015 0 0 -0.346714 0.0353429 
445 1 -0.0938501 0.304643 1.98627 0 -0.5 -2.91336 0.015 0 0 -0.346714 0.0353429 
386 1 -0.118095 0.37311 1.99971 0 -0.5 -2.86774 0.015 0 0 -0.346714 0.0353429 
302 1 -0.0567477 0.149316 2.02651 0 -0.5 -2.77455 0.025 0 0 -1.60516 0.163625 
401 1 -0.0913429 0.18078 2.02515 0 -0.5 -2.77936 0.015 0 0 -0.346714 0.0353429 
314 1 -0.136534 0.217236 2.03264 0 -0.5 -2.75277 0.025 0 0 -1.60516 0.163625 
439 1 -0.132801 0.267897 2.02309 0 -0.5 -2.78661 0.015 0 0 -0.346714 0.0353429 
344 1 -0.147144 0.305445 2.01358 0 -0.5 -2.81987 0.025 0 0 -1.60516 0.163625 
431 1 -0.13363 0.177651 2.052 0 -0.5 -2.68292 0.015 0 0 -0.346714 0.0353429 
355 1 -0.0483468 0.196759 2.04707 0 -0.5 -2.70088 0.015 0 0 -0.346714 0.0353429 
446 1 -0.116317 0.334626 2.06637 0 -0.5 -2.62985 0.015 0 0 -0.346714 0.0353429 
354 1 -0.0927402 0.365498 2.05092 0 -0.5 -2.68685 0.015 0 0 -0.346714 0.0353429 
413 1 -0.0512121 0.366816 2.04289 0 -0.5 -2.71598 0.015 0 0 -0.346714 0.0353429 
442 1 -0.149932 0.426171 2.0438 0 -0.5 -2.71275 0.015 0 0 -0.346714 0.0353429 
408 1 -0.087028 0.434439 2.04993 0 -0.5 -2.69048 0.015 0 0 -0.346714 0.0353429 
350 1 -0.147794 0.187395 2.1016 0 -0.5 -2.49496 0.025 0 0 -1.60516 0.163625 
399 1 -0.074527 0.200048 2.09402 0 -0.5 -2.52459 0.015 0 0 -0.346714 0.0353429 
335 1 -0.126459 0.248418 2.10146 0 -0.5 -2.49555 0.025 0 0 -1.60516 0.163625 
436 1 -0.0854574 0.254951 2.09359 0 -0.5 -2.52626 0.015 0 0 -0.346714 0.0353429 
341 1 -0.148816 0.368228 2.09536 0 -0.5 -2.51939 0.025 0 0 -1.60516 0.163625 
411 1 -0.0485728 0.417056 2.07164 0 -0.5 -2.61013 0.015 0 0 -0.346714 0.0353429 
382 1 -0.110402 0.444578 2.07573 0.026541 -0.439017 -2.72607 0.015 0 0 -0.346714 0.0353429 
389 1 -0.0230912 0.441676 2.09612 0 -0.5 -2.51645 0.015 0 0 -0.346714 0.0353429 
324 1 -0.0498553 0.154703 2.10794 0 -0.5 -2.46995 0.025 0 0 -1.60516 0.163625 
437 1 -0.0723044 0.231232 2.11279 0 -0.5 -2.45062 0.015 0 0 -0.346714 0.0353429 
385 1 -0.0696212 0.377365 2.10584 0 -0.5 -2.47829 0.015 0 0 -0.346714 0.0353429 
394 1 -0.145405 0.406684 2.12795 0 -0.5 -2.38911 0.015 0 0 -0.346714 0.0353429 
384 1 -0.148491 0.449577 2.10654 -0.135564 -0.440896 -2.50939 0.015 0 0 -0.346714 0.0353429 
427 1 -0.113344 0.44078 2.11418 0.0988458 -0.172977 -2.7633 0.015 0 0 -0.346714 0.0353429 
358 1 -0.127277 0.178792 2.14402 0 -0.5 -2.32221 0.015 0 0 -0.346714 0.0353429 
367 1 -0.106717 0.211831 2.13512 0 -0.5 -2.35949 0.015 0 0 -0.346714 0.0353429 
376 1 -0.0824761 0.223772 2.15658 0 -0.5 -2.26855 0.015 0 0 -0.346714 0.0353429 
326 1 -0.145564 0.308454 2.14509 0 -0.5 -2.3177 0.025 0 0 -1.60516 0.163625 
424 1 -0.119881 0.417916 2.14104 -0.0730123 -0.390635 -2.35074 0.015 0 0 -0.346714 0.0353429 
426 1 -0.0179373 0.436964 2.13487 0 -0.5 -2.36057 0.015 0 0 -0.346714 0.0353429 
319 1 -0.0687817 0.458025 2.14236 0 -0.5 -2.32917 0.025 0 0 -1.60516 0.163625 
433 1 -0.118613 0.164665 2.17153 0 -0.5 -2.20292 0.015 0 0 -0.346714 0.0353429 
420 1 -0.037203 0.172826 2.17369 0 -0.5 -2.19331 0.015 0 0 -0.346714 0.0353429 
402 1 -0.101682 0.208287 2.17577 0 -0.5 -2.18399 0.015 0 0 -0.346714 0.0353429 
363 1 -0.0911777 0.285327 2.18914 0 -0.5 -2.12307 0.015 0 0 -0.346714 0.0353429 
360 1 -0.116599 0.309221 2.18821 0 -0.5 -2.12738 0.015 0 0 -0.346714 0.0353429 
306 1 -0.116739 0.386034 2.17508 0 -0.5 -2.18703 0.025 0 0 -1.60516 0.163625 
397 1 -0.0557758 0.397618 2.19129 0 -0.5 -2.11306 0.015 0 0 -0.346714 0.0353429 
371 1 -0.0449321 0.436104 2.18724 0 -0.5 -2.1318 0.015 0 0 -0.346714 0.0353429 
412 1 -0.0937388 0.456584 2.17847 0 -0.5 -2.17182 0.015 0 0 -0.346714 0.0353429 
322 1 -0.131733 0.195564 2.20642 0 -0.5 -2.04164 0.025 0 0 -1.60516 0.163625 
308 1 -0.0755208 0.211588 2.22533 -0 0 -2 0.025 0 0 0 0.163625 
398 1 -0.0484497 0.240461 2.21925 -0 0 -2 0.015 0 0 0 0.0353429 
438 1 -0.0987495 0.291508 2.22631 -0 0 -2 0.015 0 0 0 0.0353429 
373 1 -0.136858 0.342184 2.21142 0 -0.5 -2.01751 0.015 0 0 -0.346714 0.0353429 
396 1 -0.0958984 0.36266 2.20757 0 -0.5 -2.03615 0.015 0 0 -0.346714 0.0353429 
369 1 -0.138958 0.400563 2.21294 0 -0.5 -2.01006 0.015 0 0 -0.346714 0.0353429 
383 1 -0.0262689 0.418803 2.21354 0 -0.5 -2.00721 0.015 0 0 -0.346714 0.0353429 
381 1 -0.0827007 0.431114 2.20457 0 -0.5 -2.05057 0.015 0 0 -0.346714 0.0353429 
415 1 -0.127182 0.240475 2.23763 -0 0 -2 0.015 0 0 0 0.0353429 
343 1 -0.140775 0.298259 2.24158 -0 0 -2 0.025 0 0 0 0.163625 
356 1 -0.111476 0.333774 2.23017 -0 0 -2 0.015 0 0 0 0.0353429 
443 1 -0.0906469 0.387283 2.2365 -0 0 -2 0.015 0 0 0 0.0353429 
349 1 -0.116564 0.417399 2.24379 -0 0 -2 0.025 0 0 0 0.163625 
351 1 -0.0409452 0.415267 2.24639 -0 0 -2 0.015 0 0 0 0.0353429 
340 1 -0.149237 0.461517 2.22989 -0 0 -2 0.025 0 0 0 0.163625 
390 1 -0.0988461 0.19568 2.25864 -0 0 -2 0.015 0 0 0 0.0353429 
448 1 -0.0329565 0.20149 2.27132 -0 0 -2 0.015 0 0 0 0.0353429 
347 1 -0.0548177 0.23798 2.27465 -0 0 -2 0.025 0 0 0 0.163625 
362 1 -0.0154426 0.229504 2.28742 -0 0 -2 0.015 0 0 0 0.0353429 
378 1 -0.121409 0.285313 2.27855 -0 0 -2 0.015 0 0 0 0.0353429 
312 1 -0.134707 0.344673 2.2792 -0 0 -2 0.025 0 0 0 0.163625 
359 1 -0.107325 0.388274 2.28351 -0 0 -2 0.015 0 0 0 0.0353429 
417 1 -0.0160313 0.444009 2.27919 -0 0 -2 0.015 0 0 0 0.0353429 
346 1 -0.149998 0.46436 2.28409 -0 0 -2 0.025 0 0 0 0.163625 
419 1 -0.111609 0.178994 2.28911 -0 0 -2 0.015 0 0 0 0.0353429 
421 1 -0.0930175 0.256927 2.29748 -0 0 -2 0.015 0 0 0 0.0353429 
303 1 -0.0551599 0.406314 2.28767 -0 0 -2 0.025 0 0 0 0.163625 
365 1 -0.146907 0.425762 2.30202 -0 0 -2 0.015 0 0 0 0.0353429 
334 1 -0.103439 0.440728 2.2939 -0 0 -2 0.025 0 0 0 0.163625 
309 1 -0.144284 0.205271 2.33806 -0 0 -2 0.025 0 0 0 0.163625 
320 1 -0.0648735 0.208579 2.3284 -0 0 -2 0.025 0 0 0 0.163625 
430 1 -0.123083 0.250988 2.34462 -0 0 -2 0.015 0 0 0 0.0353429 
403 1 -0.0833248 0.256507 2.34657 -0 0 -2 0.015 0 0 0 0.0353429 
325 1 -0.117824 0.294875 2.31962 -0 0 -2 0.025 0 0 0 0.163625 
372 1 -0.0702168 0.391047 2.33178 -0 0 -2 0.015 0 0 0 0.0353429 
387 1 -0.0901615 0.367162 2.34018 -0 0 -2 0.015 0 0 0 0.0353429 
447 1 -0.122284 0.473304 2.32895 -0 0 -2 0.015 0 0 0 0.0353429 
338 1 -0.0583644 0.458496 2.33925 -0 0 -2 0.025 0 0 0 0.163625 
379 1 -0.0327871 0.203074 2.35603 -0 0 -2 0.015 0 0 0 0.0353429 
357 1 -0.0584785 0.247404 2.37425 -0 0 -2 0.015 0 0 0 0.0353429 
393 1 -0.015571 0.425619 2.35366 -0 0 -2 0.015 0 0 0 0.0353429 
329 1 -0.123479 0.457221 2.37685 -0 0 -2 0.025 0 0 0 0.163625 
316 1 -0.0983119 0.181261 2.37841 -0 0 -2 0.025 0 0 0 0.163625 
364 1 -0.0453235 0.209912 2.38659 -0 0 -2 0.015 0 0 0 0.0353429 
321 1 -0.126579 0.250186 2.38726 -0 0 -2 0.025 0 0 0 0.163625 
410 1 -0.145474 0.298701 2.39035 -0 0 -2 0.015 0 0 0 0.0353429 
333 1 -0.0978849 0.312107 2.38792 -0 0 -2 0.025 0 0 0 0.163625 
380 1 -0.127355 0.355901 2.38331 -0 0 -2 0.015 0 0 0 0.0353429 
337 1 -0.142368 0.393123 2.39788 -0 0 -2 0.025 0 0 0 0.163625 
301 1 -0.0884221 0.421264 2.37936 -0 0 -2 0.025 0 0 0 0.163625 
428 1 -0.0387226 0.430102 2.38262 -0 0 -2 0.015 0 0 0 0.0353429 
450 1 -0.0322061 0.474788 2.38345 -0 0 -2 0.015 0 0 0 0.0353429 
425 1 -0.074083 0.175677 2.43545 -0 0 -2 0.015 0 0 0 0.0353429 
332 1 -0.0814262 0.231721 2.42518 -0 0 -2 0.025 0 0 0 0.163625 
400 1 -0.135353 0.274705 2.42782 -0 0 -2 0.015 0 0 0 0.0353429 
339 1 -0.0802774 0.437645 2.43507 -0 0 -2 0.025 0 0 0 0.163625 
305 1 -0.0452536 0.474362 2.43545 -0 0 -2 0.025 0 0 0 0.163625 
404 1 -0.119976 0.192749 2.45139 -0 0 -2 0.015 0 0 0 0.0353429 
311 1 -0.0354402 0.189328 2.44316 -0 0 -2 0.025 0 0 0 0.163625 
345 1 -0.128178 0.236209 2.44886 -0 0 -2 0.025 0 0 0 0.163625 
435 1 -0.0960728 0.272801 2.45172 -0 0 -2 0.015 0 0 0 0.0353429 
317 1 -0.129905 0.313645 2.44065 -0 0 -2 0.025 0 0 0 0.163625 
366 1 -0.144217 0.391047 2.43891 -0 0 -2 0.015 0 0 0 0.0353429 
405 1 -0.038992 0.42438 2.44304 -0 0 -2 0.015 0 0 0 0.0353429 
444 1 -0.0159467 0.465681 2.4636 -0 0 -2 0.015 0 0 0 0.0353429 
289 1 0.101411 0.229474 0.0137297 0.0203384 -0.134604 -6.99895 0.015 0 0 -0.346714 0.0353429 
284 1 0.0662647 -0.0627545 0.165695 -0.0310215 -0.613333 -6.69367 0.015 0 0 -0.346714 0.0353429 
203 1 0.0667127 -0.0567672 0.215849 0 -0.5 -6.57445 0.015 0 0 -0.346714 0.0353429 
206 1 0.106285 -0.0291613 0.209345 0.057048 -0.582454 -6.61813 0.015 0 0 -0.346714 0.0353429 
199 1 0.0895479 0.118094 0.20023 -0.00278668 -0.321029 -6.67061 0.025 0 0 -1.60516 0.163625 
213 1 0.0350777 0.18257 0.216033 0 -0.5 -6.57416 0.015 0 0 -0.346714 0.0353429 
272 1 0.0168276 0.217548 0.209997 0 -0.5 -6.58318 0.015 0 0 -0.346714 0.0353429 
259 1 0.149131 -0.0161735 0.248467 0 -0.5 -6.5256 0.015 0 0 -0.346714 0.0353429 
237 1 0.137659 0.0114004 0.243788 0.0724848 -0.475593 -6.52313 0.015 0 0 -0.346714 0.0353429 
171 1 0.0955264 0.145107 0.247619 0 -0.5 -6.52687 0.025 0 0 -1.60516 0.163625 
214 1 0.144386 0.129733 0.228052 0 -0.5 -6.55621 0.015 0 0 -0.346714 0.0353429 
226 1 0.110692 0.191304 0.241289 0 -0.5 -6.53639 0.015 0 0 -0.346714 0.0353429 
241 1 0.0849537 0.213018 0.23389 0 -0.5 -6.54747 0.015 0 0 -0.346714 0.0353429 
263 1 0.025742 0.00449374 0.263699 0 -0.5 -6.50264 0.015 0 0 -0.346714 0.0353429 
116 1 0.065277 0.129273 0.279584 0.36535 -0.287166 -6.55888 0.015 0 0 -0.346714 0.0353429 
220 1 0.00975519 -0.0468221 0.300646 -0.0669262 -0.554313 -6.44043 0.015 0 0 -0.346714 0.0353429 
177 1 0.172445 0.127923 0.297973 0.112606 -0.398162 -6.45544 0.025 0 0 -1.60516 0.163625 
184 1 0.11251 0.245841 0.34384 0 -0.5 -6.38061 0.025 0 0 -1.60516 0.163625 
249 1 0.0491797 0.183421 0.372893 0 -0.5 -6.33577 0.015 0 0 -0.346714 0.0353429 
290 1 0.155376 0.198126 0.355261 0.0439512 -0.299137 -6.32908 0.015 0 0 -0.346714 0.0353429 
166 1 0.0609489 0.247253 0.351564 0 -0.5 -6.36874 0.025 0 0 -1.60516 0.163625 
270 1 0.0946744 0.175669 0.389528 0 -0.5 -6.30997 0.015 0 0 -0.346714 0.0353429 
216 1 0.0958813 -0.033874 0.426607 0.0481324 -0.610657 -6.23281 0.015 0 0 -0.346714 0.0353429 
222 1 0.123753 -0.0143386 0.414556 0 -0.5 -6.27093 0.015 0 0 -0.346714 0.0353429 
294 1 0.128315 0.208152 0.40929 0 -0.5 -6.27917 0.015 0 0 -0.346714 0.0353429 
180 1 0.0361143 0.000763971 0.463601 -0.021889 -0.504465 -6.18822 0.025 0 0 -1.60516 0.163625 
253 1 0.123075 0.0930692 0.466276 0 -0.5 -6.18951 0.015 0 0 -0.346714 0.0353429 
231 1 0.0350342 0.20562 0.459158 0 -0.5 -6.20079 0.015 0 0 -0.346714 0.0353429 
170 1 0.20063 0.185511 0.440895 0.161731 -0.381986 -6.24251 0.025 0 0 -1.60516 0.163625 
169 1 0.0892107 0.214668 0.487084 0 -0.5 -6.15645 0.025 0 0 -1.60516 0.163625 
209 1 0.0969746 -0.0187524 0.523049 0 -0.5 -6.09886 0.015 0 0 -0.346714 0.0353429 
278 1 0.113612 0.115965 0.565619 0 -0.5 -6.03 0.015 0 0 -0.346714 0.0353429 
296 1 0.146983 0.097001 0.56791 0 -0.5 -6.02627 0.015 0 0 -0.346714 0.0353429 
257 1 0.139837 0.228641 0.566229 0 -0.5 -6.02902 0.015 0 0 -0.346714 0.0353429 
168 1 0.0261487 0.0181037 0.616346 0 -0.5 -5.94691 0.025 0 0 -1.60516 0.163625 
269 1 0.141487 0.0135043 0.61277 0 -0.5 -5.95279 0.015 0 0 -0.346714 0.0353429 
162 1 0.0478022 0.218457 0.6064 0 -0.5 -5.96329 0.025 0 0 -1.60516 0.163625 
235 1 0.134937 -0.0156153 0.631412 0 -0.5 -5.92199 0.015 0 0 -0.346714 0.0353429 
185 1 0.0936576 0.0626661 0.64 0 -0.5 -5.90776 0.025 0 0 -1.60516 0.163625 
217 1 0.133752 0.0636912 0.62952 0 -0.5 -5.92513 0.015 0 0 -0.346714 0.0353429 
182 1 0.114565 0.173779 0.62478 0 -0.5 -5.93298 0.025 0 0 -1.60516 0.163625 
286 1 0.147755 0.26287 0.628215 0 -0.5 -5.92729 0.015 0 0 -0.346714 0.0353429 
176 1 0.0399362 0.270472 0.62963 0 -0.5 -5.92493 0.025 0 0 -1.60516 0.163625 
153 1 0.0895866 -0.0212402 0.671042 0 -0.5 -5.85597 0.025 0 0 -1.60516 0.163625 
211 1 0.0694768 0.0369716 0.695616 0 -0.5 -5.81467 0.015 0 0 -0.346714 0.0353429 
251 1 0.126174 0.131559 0.687168 0 -0.5 -5.82889 0.015 0 0 -0.346714 0.0353429 
291 1 0.140432 0.207523 0.714224 0 -0.5 -5.78318 0.015 0 0 -0.346714 0.0353429 
159 1 0.087245 0.266208 0.715907 0 -0.5 -5.78033 0.025 0 0 -1.60516 0.163625 
300 1 0.149285 0.26024 0.732059 0 -0.5 -5.75286 0.015 0 0 -0.346714 0.0353429 
204 1 0.134881 0.0252481 0.744793 0 -0.5 -5.73109 0.015 0 0 -0.346714 0.0353429 
161 1 0.135356 0.0828496 0.743484 0 -0.5 -5.73334 0.025 0 0 -1.60516 0.163625 
230 1 0.118982 0.123372 0.765657 0 -0.5 -5.69528 0.015 0 0 -0.346714 0.0353429 
228 1 0.0279693 0.232593 0.753563 0 -0.5 -5.71608 0.015 0 0 -0.346714 0.0353429 
175 1 0.0941494 0.0180588 0.790276 0 -0.5 -5.6527 0.025 0 0 -1.60516 0.163625 
293 1 0.0548164 0.0571452 0.833014 0 -0.5 -5.57805 0.015 0 0 -0.346714 0.0353429 
192 1 0.134392 0.181049 0.820773 0 -0.5 -5.59953 0.025 0 0 -1.60516 0.163625 
285 1 0.0870748 0.218259 0.822897 0 -0.5 -5.59581 0.015 0 0 -0.346714 0.0353429 
256 1 0.0868225 0.250057 0.815944 0 -0.5 -5.60797 0.015 0 0 -0.346714 0.0353429 
250 1 0.138716 0.264193 0.812578 0 -0.5 -5.61386 0.015 0 0 -0.346714 0.0353429 
246 1 0.0494565 0.28501 0.823849 0 -0.5 -5.59414 0.015 0 0 -0.346714 0.0353429 
240 1 0.0956629 0.28188 0.826866 0 -0.5 -5.58884 0.015 0 0 -0.346714 0.0353429 
299 1 0.0153001 0.0415412 0.843142 0 -0.5 -5.5602 0.015 0 0 -0.346714 0.0353429 
200 1 0.112803 0.074149 0.864103 0 -0.5 -5.52311 0.025 0 0 -1.60516 0.163625 
275 1 0.0211058 0.264962 0.840911 0 -0.5 -5.56412 0.015 0 0 -0.346714 0.0353429 
202 1 0.126943 0.0161189 0.880446 0 -0.5 -5.49398 0.015 0 0 -0.346714 0.0353429 
245 1 0.0868358 0.0417147 0.894369 0 -0.5 -5.46906 0.015 0 0 -0.346714 0.0353429 
255 1 0.0340792 0.232865 0.872083 0 -0.5 -5.50889 0.015 0 0 -0.346714 0.0353429 
252 1 0.131256 0.241424 0.872088 0 -0.5 -5.50889 0.015 0 0 -0.346714 0.0353429 
189 1 0.0509787 0.015512 0.925397 0 -0.5 -5.41314 0.025 0 0 -1.60516 0.163625 
247 1 0.0532922 0.0695654 0.916929 0 -0.5 -5.42845 0.015 0 0 -0.346714 0.0353429 
154 1 0.116388 0.161122 0.941203 0 -0.5 -5.3844 0.025 0 0 -1.60516 0.163625 
190 1 0.11779 0.274732 0.953615 0 -0.5 -5.36174 0.025 0 0 -1.60516 0.163625 
287 1 0.130384 0.00635025 0.962987 0 -0.5 -5.34457 0.015 0 0 -0.346714 0.0353429 
288 1 0.0326968 0.0514455 0.97643 0 -0.5 -5.31985 0.015 0 0 -0.346714 0.0353429 
295 1 0.103955 0.220828 0.98051 0 -0.5 -5.3123 0.015 0 0 -0.346714 0.0353429 
156 1 0.0411221 0.269187 0.983767 0 -0.5 -5.30631 0.025 0 0 -1.60516 0.163625 
210 1 0.0872868 0.0133864 1.01741 0 -0.5 -5.24373 0.015 0 0 -0.346714 0.0353429 
165 1 0.148355 0.104191 1.01264 0 -0.5 -5.25265 0.025 0 0 -1.60516 0.163625 
181 1 0.070397 0.0523443 1.02747 0 -0.5 -5.22489 0.025 0 0 -1.60516 0.163625 