ITEM: TIMESTEP
76000
ITEM: NUMBER OF ATOMS
900
ITEM: BOX BOUNDS mm mm mm
-1 1
-1 1
-2.32965 2.85
ITEM: ATOMS id type x y z vx vy vz radius fx fy fz mass 
68 1 -0.0997213 -0.134729 -2.05357 0 -0.5 -9.36746 0.015 0 0 -0.346714 0.0353429 
137 1 -0.0922186 -0.0794263 -2.0312 -0.00924354 -0.479856 -9.3446 0.015 0 0 -0.346714 0.0353429 
45 1 -0.0943793 -0.183762 -2.00518 0 -0.5 -9.31664 0.025 0 0 -1.60516 0.163625 
122 1 -0.0668444 -0.134104 -2.00411 0.00811842 -0.517403 -9.31502 0.015 0 0 -0.346714 0.0353429 
33 1 -0.129286 0.0566047 -2.01553 0 -0.5 -9.32753 0.025 0 0 -1.60516 0.163625 
43 1 -0.116198 -0.0322146 -1.96929 0 -0.5 -9.27877 0.025 0 0 -1.60516 0.163625 
111 1 -0.0487783 0.1001 -1.96827 0 -0.5 -9.2777 0.015 0 0 -0.346714 0.0353429 
119 1 -0.0370509 -0.194811 -1.95509 0 -0.5 -9.26377 0.015 0 0 -0.346714 0.0353429 
78 1 -0.0422369 0.0639551 -1.94187 0 -0.5 -9.24974 0.015 0 0 -0.346714 0.0353429 
75 1 -0.0493142 -0.144328 -1.92561 0 -0.5 -9.23247 0.015 0 0 -0.346714 0.0353429 
89 1 -0.129145 -0.115692 -1.91471 0 -0.5 -9.2209 0.015 0 0 -0.346714 0.0353429 
220 1 -0.00898414 -0.20203 -1.88723 -0.0669262 -0.554313 -9.18723 0.015 0 0 -0.346714 0.0353429 
59 1 -0.0865612 0.0128678 -1.89059 0 -0.5 -9.19519 0.015 0 0 -0.346714 0.0353429 
92 1 -0.131017 0.107327 -1.86505 0 -0.5 -9.16792 0.015 0 0 -0.346714 0.0353429 
26 1 -0.00927767 -0.00445407 -1.80956 0.14857 -0.341553 -9.13697 0.025 0 0 -1.60516 0.163625 
98 1 -0.147127 -0.0435582 -1.77052 0 -0.5 -9.06619 0.015 0 0 -0.346714 0.0353429 
151 1 -0.0686397 0.038527 -1.7715 0 -0.5 -9.06727 0.015 0 0 -0.346714 0.0353429 
8 1 -0.104188 -0.176537 -1.74193 0 -0.5 -9.03519 0.025 0 0 -1.60516 0.163625 
3 1 -0.141317 0.0213879 -1.72882 0 -0.5 -9.02097 0.025 0 0 -1.60516 0.163625 
72 1 -0.105673 0.058796 -1.70622 0 -0.5 -8.99634 0.015 0 0 -0.346714 0.0353429 
100 1 -0.0681017 -0.108079 -1.67361 0 -0.5 -8.96073 0.015 0 0 -0.346714 0.0353429 
140 1 -0.125739 -0.0664436 -1.68178 0 -0.5 -8.96966 0.015 0 0 -0.346714 0.0353429 
40 1 -0.104474 0.110198 -1.6799 0 -0.5 -8.9676 0.025 0 0 -1.60516 0.163625 
118 1 -0.0372647 0.0936811 -1.66502 0 -0.5 -8.95132 0.015 0 0 -0.346714 0.0353429 
117 1 -0.0596227 -0.164979 -1.63982 0 -0.5 -8.92365 0.015 0 0 -0.346714 0.0353429 
148 1 -0.225511 0.00386929 -1.63288 -0.171679 -0.397353 -8.97299 0.015 0 0 -0.346714 0.0353429 
51 1 -0.167233 -0.157113 -1.59647 -0.0265052 -0.519812 -8.87175 0.025 0 0 -1.60516 0.163625 
282 1 -0.0833668 -0.147718 -1.58646 -0.2609 -0.673185 -8.85157 0.015 0 0 -0.346714 0.0353429 
90 1 -0.146535 0.111667 -1.54393 0 -0.5 -8.81761 0.015 0 0 -0.346714 0.0353429 
60 1 -0.0770515 -0.156072 -1.51138 0 -0.5 -8.78131 0.015 0 0 -0.346714 0.0353429 
11 1 -0.0919228 0.0173406 -1.52631 0.022917 -0.457889 -8.81047 0.025 0 0 -1.60516 0.163625 
50 1 -0.130982 0.0683549 -1.509 0 -0.5 -8.77866 0.025 0 0 -1.60516 0.163625 
74 1 -0.0790012 0.0558934 -1.45536 0 -0.5 -8.71853 0.015 0 0 -0.346714 0.0353429 
105 1 -0.298647 0.0387358 -1.44015 -0.321192 -0.368687 -8.69418 0.015 0 0 -0.346714 0.0353429 
76 1 -0.0202065 0.08407 -1.43091 0 -0.5 -8.69096 0.015 0 0 -0.346714 0.0353429 
44 1 -0.125916 -0.164403 -1.4146 0 -0.5 -8.67252 0.025 0 0 -1.60516 0.163625 
29 1 -0.0788351 0.0981821 -1.39078 0 -0.5 -8.64554 0.025 0 0 -1.60516 0.163625 
36 1 -0.103411 -0.117688 -1.38154 0 -0.5 -8.63504 0.025 0 0 -1.60516 0.163625 
54 1 -0.189483 -0.0925203 -1.34454 -0.0956439 -0.529683 -8.58374 0.015 0 0 -0.346714 0.0353429 
114 1 -0.0721585 -0.0874345 -1.32691 -0.00040144 -0.499666 -8.57283 0.015 0 0 -0.346714 0.0353429 
73 1 -0.0639552 -0.138233 -1.28023 0 -0.5 -8.51919 0.015 0 0 -0.346714 0.0353429 
2 1 -0.110349 0.00907115 -1.27138 0 -0.5 -8.50898 0.025 0 0 -1.60516 0.163625 
113 1 -0.118506 0.133198 -1.29005 0 -0.5 -8.53047 0.015 0 0 -0.346714 0.0353429 
146 1 -0.109965 -0.151084 -1.24565 0 -0.5 -8.47926 0.015 0 0 -0.346714 0.0353429 
12 1 -0.0363281 0.118336 -1.24801 0 -0.5 -8.48201 0.025 0 0 -1.60516 0.163625 
88 1 -0.0666498 0.0759185 -1.22067 0 -0.5 -8.45032 0.015 0 0 -0.346714 0.0353429 
99 1 -0.146283 -0.0864829 -1.18392 0 -0.5 -8.40755 0.015 0 0 -0.346714 0.0353429 
57 1 -0.120673 -0.0349395 -1.20371 0 -0.5 -8.4306 0.015 0 0 -0.346714 0.0353429 
10 1 -0.0548374 0.109981 -1.18401 0.0635655 -0.375939 -8.46424 0.025 0 0 -1.60516 0.163625 
66 1 -0.0281121 -0.0991772 -1.11706 0 -0.5 -8.32917 0.015 0 0 -0.346714 0.0353429 
19 1 -0.0715757 -0.0767476 -1.12332 0 -0.5 -8.33652 0.025 0 0 -1.60516 0.163625 
83 1 -0.108229 -0.056854 -1.12923 0 -0.5 -8.34349 0.015 0 0 -0.346714 0.0353429 
34 1 -0.138562 0.082511 -1.13816 0 -0.5 -8.35399 0.025 0 0 -1.60516 0.163625 
81 1 -0.0221148 0.107441 -1.09366 0.07636 -0.438847 -8.27668 0.015 0 0 -0.346714 0.0353429 
71 1 -0.145263 0.126198 -1.10399 0 -0.5 -8.31377 0.015 0 0 -0.346714 0.0353429 
67 1 -0.0183057 -0.143611 -1.07604 0 -0.5 -8.28071 0.015 0 0 -0.346714 0.0353429 
24 1 -0.138394 -0.116548 -1.05594 0 -0.5 -8.25687 0.025 0 0 -1.60516 0.163625 
133 1 -0.127566 -5.56358e-05 -1.04175 0 -0.5 -8.23999 0.015 0 0 -0.346714 0.0353429 
95 1 -0.10482 0.0873122 -1.03608 0 -0.5 -8.23322 0.015 0 0 -0.346714 0.0353429 
39 1 -0.0696793 0.13701 -1.0359 0 -0.5 -8.23303 0.025 0 0 -1.60516 0.163625 
103 1 -0.135939 -0.0722777 -0.996009 0 -0.5 -8.18535 0.015 0 0 -0.346714 0.0353429 
70 1 -0.107191 -0.0900756 -0.976155 0 -0.5 -8.16151 0.015 0 0 -0.346714 0.0353429 
143 1 -0.11631 0.145682 -0.981862 0 -0.5 -8.16838 0.015 0 0 -0.346714 0.0353429 
28 1 -0.0685748 -0.11393 -0.935378 0 -0.5 -8.11237 0.025 0 0 -1.60516 0.163625 
97 1 -0.0338223 -0.086856 -0.949997 0 -0.5 -8.13002 0.015 0 0 -0.346714 0.0353429 
115 1 -0.076478 -0.0515689 -0.949342 0 -0.5 -8.12924 0.015 0 0 -0.346714 0.0353429 
85 1 -0.13789 0.0700152 -0.945446 0 -0.5 -8.12453 0.015 0 0 -0.346714 0.0353429 
134 1 -0.137197 0.110367 -0.919426 0 -0.5 -8.09304 0.015 0 0 -0.346714 0.0353429 
77 1 -0.0297287 0.138749 -0.908027 0 -0.5 -8.07921 0.015 0 0 -0.346714 0.0353429 
120 1 -0.148569 0.159261 -0.90478 0 -0.5 -8.07528 0.015 0 0 -0.346714 0.0353429 
96 1 -0.131998 -0.0869186 -0.876661 0 -0.5 -8.04105 0.015 0 0 -0.346714 0.0353429 
126 1 -0.129146 -0.0138773 -0.894893 -0.0288748 -0.539424 -8.04787 0.015 0 0 -0.346714 0.0353429 
38 1 -0.121616 -0.0458121 -0.843856 0 -0.5 -8.00092 0.025 0 0 -1.60516 0.163625 
130 1 -0.0642546 -0.0515593 -0.78278 0 -0.5 -7.92568 0.015 0 0 -0.346714 0.0353429 
23 1 -0.134189 0.090519 -0.784202 0 -0.5 -7.92745 0.025 0 0 -1.60516 0.163625 
31 1 -0.140814 -0.109123 -0.724163 0 -0.5 -7.85279 0.025 0 0 -1.60516 0.163625 
150 1 -0.100106 -0.0747931 -0.747132 0 -0.5 -7.88144 0.015 0 0 -0.346714 0.0353429 
18 1 -0.106015 0.155686 -0.74517 0 -0.5 -7.87899 0.025 0 0 -1.60516 0.163625 
4 1 -0.0330873 0.168857 -0.746418 0 -0.5 -7.88056 0.025 0 0 -1.60516 0.163625 
106 1 -0.159447 0.31235 -0.736861 -0.0998962 -0.230395 -7.96153 0.015 0 0 -0.346714 0.0353429 
110 1 -0.0868918 -0.119583 -0.682756 0 -0.5 -7.8009 0.015 0 0 -0.346714 0.0353429 
93 1 -0.0244706 -0.107842 -0.66181 0 -0.5 -7.77451 0.015 0 0 -0.346714 0.0353429 
17 1 -0.134634 0.00602655 -0.651246 0 -0.5 -7.76117 0.025 0 0 -1.60516 0.163625 
136 1 -0.0832352 0.0990076 -0.656367 0 -0.5 -7.76764 0.015 0 0 -0.346714 0.0353429 
30 1 -0.0481876 0.126857 -0.644183 0 -0.5 -7.75224 0.025 0 0 -1.60516 0.163625 
109 1 -0.0676248 0.17408 -0.645823 0 -0.5 -7.7543 0.015 0 0 -0.346714 0.0353429 
1 1 -0.154056 0.415857 -0.617311 -0.021394 -0.0706631 -7.82649 0.025 0 0 -1.60516 0.163625 
108 1 -0.089121 -0.0871765 -0.580559 0 -0.5 -7.67131 0.015 0 0 -0.346714 0.0353429 
69 1 -0.020474 -0.0669175 -0.546525 0 -0.5 -7.62765 0.015 0 0 -0.346714 0.0353429 
35 1 -0.146938 0.106792 -0.536394 0 -0.5 -7.61461 0.025 0 0 -1.60516 0.163625 
149 1 -0.00277935 0.0342985 -0.53445 0.199959 -0.45766 -7.76125 0.015 0 0 -0.346714 0.0353429 
102 1 -0.11709 -0.0871005 -0.489357 0 -0.5 -7.55378 0.015 0 0 -0.346714 0.0353429 
139 1 -0.104092 -0.029428 -0.489594 0 -0.5 -7.55408 0.015 0 0 -0.346714 0.0353429 
144 1 -0.0691235 -0.0265259 -0.491019 0 -0.5 -7.55594 0.015 0 0 -0.346714 0.0353429 
22 1 -0.102489 0.0383065 -0.497298 0 -0.5 -7.56408 0.025 0 0 -1.60516 0.163625 
14 1 -0.0571303 -0.0950245 -0.472996 0 -0.5 -7.5325 0.025 0 0 -1.60516 0.163625 
141 1 -0.136875 -0.0137358 -0.450667 0 -0.5 -7.50336 0.015 0 0 -0.346714 0.0353429 
55 1 -0.0960013 0.144404 -0.465864 -7.52477e-06 -0.49998 -7.52321 0.015 0 0 -0.346714 0.0353429 
94 1 -0.30892 0.182492 -0.419104 -0.356499 -0.190573 -7.51075 0.015 0 0 -0.346714 0.0353429 
21 1 -0.0470047 0.1895 -0.428659 0 -0.5 -7.47452 0.025 0 0 -1.60516 0.163625 
87 1 -0.113676 0.107588 -0.406345 0 -0.5 -7.44519 0.015 0 0 -0.346714 0.0353429 
107 1 -0.141609 -0.0980523 -0.366502 0 -0.5 -7.39251 0.015 0 0 -0.346714 0.0353429 
112 1 -0.073338 -0.0147213 -0.327099 0 -0.5 -7.34002 0.015 0 0 -0.346714 0.0353429 
84 1 -0.116406 0.0657863 -0.332306 0 -0.5 -7.34699 0.015 0 0 -0.346714 0.0353429 
147 1 -0.100309 0.177431 -0.342609 0 -0.5 -7.36072 0.015 0 0 -0.346714 0.0353429 
142 1 -0.0724928 -0.0732522 -0.294458 0 -0.5 -7.29627 0.015 0 0 -0.346714 0.0353429 
145 1 -0.0934491 0.142113 -0.291241 0 -0.5 -7.29196 0.015 0 0 -0.346714 0.0353429 
47 1 -0.140465 0.14945 -0.294312 0 -0.5 -7.29608 0.025 0 0 -1.60516 0.163625 
6 1 -0.0556802 -0.0138981 -0.260821 0.101461 -0.428163 -7.25545 0.025 0 0 -1.60516 0.163625 
80 1 -0.102893 0.112893 -0.267375 0 -0.5 -7.25978 0.015 0 0 -0.346714 0.0353429 
32 1 -0.18208 -0.101128 -0.219565 -0.0613285 -0.540948 -7.19251 0.025 0 0 -1.60516 0.163625 
135 1 -0.140472 -0.00510744 -0.223651 0 -0.5 -7.20043 0.015 0 0 -0.346714 0.0353429 
15 1 -0.0701934 0.0964504 -0.204658 0.0430154 -0.390763 -7.14825 0.025 0 0 -1.60516 0.163625 
62 1 -0.0849655 0.202406 -0.224068 0 -0.5 -7.20102 0.015 0 0 -0.346714 0.0353429 
280 1 -0.126593 0.434743 -0.215509 -0.323138 -0.0374805 -7.2631 0.015 0 0 -0.346714 0.0353429 
138 1 -0.0317395 -0.0706844 -0.194929 0 -0.5 -7.16119 0.015 0 0 -0.346714 0.0353429 
128 1 -0.145291 0.0796768 -0.192413 0 -0.5 -7.15775 0.015 0 0 -0.346714 0.0353429 
121 1 -0.0679495 0.184078 -0.162078 0 -0.5 -7.11606 0.015 0 0 -0.346714 0.0353429 
129 1 -0.0553418 -0.0468006 -0.106318 0 -0.5 -7.03876 0.015 0 0 -0.346714 0.0353429 
13 1 -0.146779 0.0358211 -0.0841095 0 -0.5 -7.00776 0.025 0 0 -1.60516 0.163625 
101 1 -0.102489 0.0458245 -0.0902927 0 -0.5 -7.01639 0.015 0 0 -0.346714 0.0353429 
37 1 -0.0716655 0.148665 -0.091135 0 -0.5 -7.01757 0.025 0 0 -1.60516 0.163625 
46 1 -0.032303 0.210569 -0.0832038 0 -0.5 -7.00648 0.025 0 0 -1.60516 0.163625 
61 1 -0.0231802 -0.0770652 -0.0669068 0 -0.5 -6.98363 0.015 0 0 -0.346714 0.0353429 
52 1 -0.100497 -0.0615105 -0.054362 0 -0.5 -6.96597 0.015 0 0 -0.346714 0.0353429 
79 1 -0.0179342 -0.0430157 -0.0667748 0 -0.5 -6.98343 0.015 0 0 -0.346714 0.0353429 
91 1 -0.124131 0.142132 -0.0660747 0 -0.5 -6.98245 0.015 0 0 -0.346714 0.0353429 
5 1 -0.137704 -0.0335882 -0.0380769 0 -0.5 -6.94301 0.025 0 0 -1.60516 0.163625 
7 1 -0.0712578 0.00544944 -0.0330119 0 -0.5 -6.93585 0.025 0 0 -1.60516 0.163625 
20 1 -0.124339 0.0938877 -0.0431433 0 -0.5 -6.95018 0.025 0 0 -1.60516 0.163625 
86 1 -0.142939 0.135059 0.0203713 0 -0.5 -6.85992 0.015 0 0 -0.346714 0.0353429 
9 1 -0.0320364 0.169159 0.0255891 0 -0.5 -6.85247 0.025 0 0 -1.60516 0.163625 
65 1 -0.147981 -0.0569033 0.0676714 0 -0.5 -6.79194 0.015 0 0 -0.346714 0.0353429 
58 1 -0.0969698 0.0398907 0.0467767 0 -0.5 -6.82206 0.015 0 0 -0.346714 0.0353429 
124 1 -0.136447 0.165377 0.04658 0 -0.5 -6.82235 0.015 0 0 -0.346714 0.0353429 
41 1 -0.107908 0.220758 0.0637404 0 -0.5 -6.79763 0.025 0 0 -1.60516 0.163625 
104 1 -0.138444 0.107217 0.124447 0 -0.5 -6.70944 0.015 0 0 -0.346714 0.0353429 
131 1 -0.025873 0.20804 0.109929 0 -0.5 -6.73063 0.015 0 0 -0.346714 0.0353429 
132 1 -0.0234712 -0.0238319 0.152885 0 -0.5 -6.66775 0.015 0 0 -0.346714 0.0353429 
48 1 -0.144727 0.033852 0.151673 0 -0.5 -6.66951 0.025 0 0 -1.60516 0.163625 
53 1 -0.106432 0.0783403 0.154885 0 -0.5 -6.6648 0.015 0 0 -0.346714 0.0353429 
49 1 -0.0613084 -0.0462895 0.182778 0 -0.5 -6.6236 0.025 0 0 -1.60516 0.163625 
82 1 -0.0851821 0.167627 0.197072 0 -0.5 -6.60241 0.015 0 0 -0.346714 0.0353429 
16 1 -0.129915 0.177079 0.18749 0 -0.5 -6.61664 0.025 0 0 -1.60516 0.163625 
27 1 -0.0637137 0.203885 0.188473 0 -0.5 -6.61516 0.025 0 0 -1.60516 0.163625 
63 1 -0.147823 0.233713 0.211165 0 -0.5 -6.58142 0.015 0 0 -0.346714 0.0353429 
25 1 -0.104447 -0.0122147 0.254532 0 -0.5 -6.51647 0.025 0 0 -1.60516 0.163625 
127 1 -0.0304133 -0.00037875 0.237486 0 -0.5 -6.54208 0.015 0 0 -0.346714 0.0353429 
56 1 -0.11556 0.231119 0.237282 0 -0.5 -6.54237 0.015 0 0 -0.346714 0.0353429 
42 1 -0.132916 0.0807956 0.276232 0 -0.5 -6.48371 0.025 0 0 -1.60516 0.163625 
123 1 -0.11925 0.137492 0.281737 0 -0.5 -6.47537 0.015 0 0 -0.346714 0.0353429 
64 1 -0.145219 0.201177 0.302601 0 -0.5 -6.44368 0.015 0 0 -0.346714 0.0353429 
125 1 -0.0960051 0.193127 0.305389 0 -0.5 -6.43947 0.015 0 0 -0.346714 0.0353429 
392 1 -0.0201822 -0.0486234 0.327608 0 -0.5 -6.40552 0.015 0 0 -0.346714 0.0353429 
361 1 -0.0655065 -0.0208406 0.323884 0 -0.5 -6.41121 0.015 0 0 -0.346714 0.0353429 
375 1 -0.132504 0.0162129 0.337964 0 -0.5 -6.38963 0.015 0 0 -0.346714 0.0353429 
391 1 -0.0665259 0.17819 0.32593 0 -0.5 -6.40807 0.015 0 0 -0.346714 0.0353429 
353 1 -0.0778865 0.0325101 0.366484 0 -0.5 -6.34568 0.015 0 0 -0.346714 0.0353429 
370 1 -0.0476722 0.250061 0.36644 0 -0.5 -6.34578 0.015 0 0 -0.346714 0.0353429 
449 1 -0.121601 -0.0430298 0.400933 0 -0.5 -6.29222 0.015 0 0 -0.346714 0.0353429 
432 1 -0.110656 0.0920228 0.384656 0 -0.5 -6.31753 0.015 0 0 -0.346714 0.0353429 
423 1 -0.035066 0.196352 0.382202 0 -0.5 -6.32135 0.015 0 0 -0.346714 0.0353429 
348 1 -0.0499185 -0.0346386 0.427477 -0.0150753 -0.514502 -6.24807 0.025 0 0 -1.60516 0.163625 
409 1 -0.1116 0.0642793 0.437068 0 -0.5 -6.23561 0.015 0 0 -0.346714 0.0353429 
434 1 -0.110177 0.224235 0.433893 0 -0.5 -6.24062 0.015 0 0 -0.346714 0.0353429 
304 1 -0.147639 0.190299 0.47233 0 -0.5 -6.17989 0.025 0 0 -1.60516 0.163625 
414 1 -0.12165 0.134412 0.51724 0 -0.5 -6.10818 0.015 0 0 -0.346714 0.0353429 
327 1 -0.047146 0.227396 0.51004 0 -0.5 -6.11976 0.025 0 0 -1.60516 0.163625 
368 1 -0.0426125 0.00210308 0.540872 0 -0.5 -6.07012 0.015 0 0 -0.346714 0.0353429 
328 1 -0.101567 0.0273596 0.562549 0 -0.5 -6.035 0.025 0 0 -1.60516 0.163625 
416 1 -0.148865 0.155752 0.533947 0 -0.5 -6.0813 0.015 0 0 -0.346714 0.0353429 
422 1 -0.0856494 0.218628 0.538454 0 -0.5 -6.07404 0.015 0 0 -0.346714 0.0353429 
307 1 -0.141488 -0.00368364 0.577902 0 -0.5 -6.00998 0.025 0 0 -1.60516 0.163625 
342 1 -0.0942786 0.178007 0.564165 0 -0.5 -6.03235 0.025 0 0 -1.60516 0.163625 
441 1 -0.0895132 0.256957 0.578435 0 -0.5 -6.0091 0.015 0 0 -0.346714 0.0353429 
440 1 -0.074831 -0.0213668 0.595762 0 -0.5 -5.98075 0.015 0 0 -0.346714 0.0353429 
352 1 -0.144025 0.215939 0.610219 0 -0.5 -5.95701 0.015 0 0 -0.346714 0.0353429 
330 1 -0.125578 0.272028 0.616102 0 -0.5 -5.9473 0.025 0 0 -1.60516 0.163625 
388 1 -0.0545692 0.0426855 0.633246 0 -0.5 -5.91895 0.015 0 0 -0.346714 0.0353429 
323 1 -0.131477 0.111813 0.630593 0 -0.5 -5.92336 0.025 0 0 -1.60516 0.163625 
406 1 -0.0920408 0.215666 0.644361 0 -0.5 -5.90051 0.015 0 0 -0.346714 0.0353429 
331 1 -0.138106 -0.016169 0.715451 0 -0.5 -5.78112 0.025 0 0 -1.60516 0.163625 
418 1 -0.0554251 -0.0110597 0.697641 0 -0.5 -5.81123 0.015 0 0 -0.346714 0.0353429 
395 1 -0.110093 0.0398721 0.706997 0 -0.5 -5.79544 0.015 0 0 -0.346714 0.0353429 
318 1 -0.126425 0.189158 0.694454 0 -0.5 -5.81663 0.025 0 0 -1.60516 0.163625 
336 1 -0.025747 0.222523 0.705828 0 -0.5 -5.7974 0.025 0 0 -1.60516 0.163625 
313 1 -0.0392615 0.0276895 0.733326 0 -0.5 -5.75071 0.025 0 0 -1.60516 0.163625 
374 1 -0.133879 0.249467 0.736474 0 -0.5 -5.74531 0.015 0 0 -0.346714 0.0353429 
315 1 -0.0970947 0.0944065 0.764962 0 -0.5 -5.69646 0.025 0 0 -1.60516 0.163625 
407 1 -0.0713596 0.222089 0.76691 0 -0.5 -5.69312 0.015 0 0 -0.346714 0.0353429 
310 1 -0.0919271 0.259993 0.761035 0 -0.5 -5.70323 0.025 0 0 -1.60516 0.163625 
445 1 -0.0938501 0.164643 0.78598 0 -0.5 -5.66016 0.015 0 0 -0.346714 0.0353429 
377 1 -0.128279 0.0117203 0.817585 0 -0.5 -5.60513 0.015 0 0 -0.346714 0.0353429 
344 1 -0.147144 0.165445 0.839465 0 -0.5 -5.56667 0.025 0 0 -1.60516 0.163625 
386 1 -0.118095 0.23311 0.812186 0 -0.5 -5.61454 0.015 0 0 -0.346714 0.0353429 
302 1 -0.0567477 0.00931634 0.865082 0 -0.5 -5.52135 0.025 0 0 -1.60516 0.163625 
401 1 -0.0913429 0.0407804 0.862378 0 -0.5 -5.52616 0.015 0 0 -0.346714 0.0353429 
439 1 -0.132801 0.127897 0.858283 0 -0.5 -5.53341 0.015 0 0 -0.346714 0.0353429 
314 1 -0.136534 0.0772362 0.877315 0 -0.5 -5.49957 0.025 0 0 -1.60516 0.163625 
413 1 -0.0512121 0.226816 0.897866 0 -0.5 -5.46278 0.015 0 0 -0.346714 0.0353429 
442 1 -0.149932 0.286171 0.899681 0 -0.5 -5.45955 0.015 0 0 -0.346714 0.0353429 
431 1 -0.13363 0.0376506 0.916226 0 -0.5 -5.42972 0.015 0 0 -0.346714 0.0353429 
355 1 -0.0483468 0.0567585 0.906273 0 -0.5 -5.44768 0.015 0 0 -0.346714 0.0353429 
354 1 -0.0927402 0.225498 0.914054 0 -0.5 -5.43365 0.015 0 0 -0.346714 0.0353429 
408 1 -0.087028 0.294439 0.912044 0 -0.5 -5.43728 0.015 0 0 -0.346714 0.0353429 
382 1 -0.10297 0.321654 0.92788 0.026541 -0.439017 -5.47287 0.015 0 0 -0.346714 0.0353429 
446 1 -0.116317 0.194626 0.945456 0 -0.5 -5.37665 0.015 0 0 -0.346714 0.0353429 
411 1 -0.0485728 0.277056 0.956251 0 -0.5 -5.35693 0.015 0 0 -0.346714 0.0353429 
427 1 -0.0856674 0.392347 0.955907 0.0988458 -0.172977 -5.5101 0.015 0 0 -0.346714 0.0353429 
350 1 -0.147794 0.0473949 1.01846 0 -0.5 -5.24176 0.025 0 0 -1.60516 0.163625 
399 1 -0.074527 0.0600481 1.00258 0 -0.5 -5.27139 0.015 0 0 -0.346714 0.0353429 
335 1 -0.126459 0.108418 1.01816 0 -0.5 -5.24235 0.025 0 0 -1.60516 0.163625 
436 1 -0.0854574 0.114951 1.00168 0 -0.5 -5.27306 0.015 0 0 -0.346714 0.0353429 
341 1 -0.148816 0.228228 1.00538 0 -0.5 -5.26619 0.025 0 0 -1.60516 0.163625 
384 1 -0.186449 0.326126 1.01935 -0.135564 -0.440896 -5.25619 0.015 0 0 -0.346714 0.0353429 
389 1 -0.0230912 0.301676 1.00696 0 -0.5 -5.26325 0.015 0 0 -0.346714 0.0353429 
324 1 -0.0498553 0.0147032 1.0318 0 -0.5 -5.21675 0.025 0 0 -1.60516 0.163625 
437 1 -0.0723044 0.0912318 1.04206 0 -0.5 -5.19742 0.015 0 0 -0.346714 0.0353429 
385 1 -0.0696212 0.237365 1.02736 0 -0.5 -5.22509 0.015 0 0 -0.346714 0.0353429 
394 1 -0.145405 0.266684 1.07445 0 -0.5 -5.13591 0.015 0 0 -0.346714 0.0353429 
358 1 -0.127277 0.0387924 1.10925 0 -0.5 -5.06901 0.015 0 0 -0.346714 0.0353429 
367 1 -0.106717 0.0718308 1.08991 0 -0.5 -5.10629 0.015 0 0 -0.346714 0.0353429 
326 1 -0.145564 0.168454 1.11158 0 -0.5 -5.0645 0.025 0 0 -1.60516 0.163625 
426 1 -0.0179373 0.296964 1.08936 0 -0.5 -5.10737 0.015 0 0 -0.346714 0.0353429 
424 1 -0.140325 0.308538 1.09828 -0.0730123 -0.390635 -5.09754 0.015 0 0 -0.346714 0.0353429 
319 1 -0.0687817 0.318025 1.10564 0 -0.5 -5.07597 0.025 0 0 -1.60516 0.163625 
376 1 -0.0824761 0.0837717 1.13683 0 -0.5 -5.01535 0.015 0 0 -0.346714 0.0353429 
433 1 -0.118613 0.0246652 1.17016 0 -0.5 -4.94972 0.015 0 0 -0.346714 0.0353429 
420 1 -0.037203 0.0328256 1.17501 0 -0.5 -4.94011 0.015 0 0 -0.346714 0.0353429 
402 1 -0.101682 0.068287 1.1797 0 -0.5 -4.93079 0.015 0 0 -0.346714 0.0353429 
306 1 -0.116739 0.246034 1.17816 0 -0.5 -4.93383 0.025 0 0 -1.60516 0.163625 
371 1 -0.0449321 0.296104 1.20579 0 -0.5 -4.8786 0.015 0 0 -0.346714 0.0353429 
412 1 -0.0937388 0.316584 1.18581 0 -0.5 -4.91862 0.015 0 0 -0.346714 0.0353429 
363 1 -0.0911777 0.145327 1.21013 0 -0.5 -4.86987 0.015 0 0 -0.346714 0.0353429 
360 1 -0.116599 0.169221 1.20799 0 -0.5 -4.87418 0.015 0 0 -0.346714 0.0353429 
397 1 -0.0557758 0.257618 1.21508 0 -0.5 -4.85986 0.015 0 0 -0.346714 0.0353429 
322 1 -0.131733 0.0555637 1.25021 0 -0.5 -4.78844 0.025 0 0 -1.60516 0.163625 
373 1 -0.136858 0.202184 1.26197 0 -0.5 -4.76431 0.015 0 0 -0.346714 0.0353429 
396 1 -0.0958984 0.22266 1.2529 0 -0.5 -4.78295 0.015 0 0 -0.346714 0.0353429 
369 1 -0.138958 0.260563 1.26558 0 -0.5 -4.75686 0.015 0 0 -0.346714 0.0353429 
381 1 -0.0827007 0.291114 1.24586 0 -0.5 -4.79737 0.015 0 0 -0.346714 0.0353429 
383 1 -0.0262689 0.278803 1.26697 0 -0.5 -4.75401 0.015 0 0 -0.346714 0.0353429 
308 1 -0.0801463 0.069671 1.29575 -0.0168546 -0.516386 -4.69281 0.025 0 0 -1.60516 0.163625 
438 1 -0.0987495 0.154333 1.29714 0 -0.5 -4.69132 0.015 0 0 -0.346714 0.0353429 
415 1 -0.127182 0.10613 1.32353 0 -0.5 -4.6358 0.015 0 0 -0.346714 0.0353429 
356 1 -0.111476 0.197564 1.30617 0 -0.5 -4.67239 0.015 0 0 -0.346714 0.0353429 
443 1 -0.0906469 0.252658 1.32092 0 -0.5 -4.64129 0.015 0 0 -0.346714 0.0353429 
340 1 -0.149237 0.325237 1.30552 0 -0.5 -4.67376 0.025 0 0 -1.60516 0.163625 
343 1 -0.140775 0.164899 1.33265 0 -0.5 -4.61647 0.025 0 0 -1.60516 0.163625 
349 1 -0.116564 0.284594 1.33776 0 -0.5 -4.60559 0.025 0 0 -1.60516 0.163625 
351 1 -0.0409452 0.283112 1.34374 0 -0.5 -4.59283 0.015 0 0 -0.346714 0.0353429 
390 1 -0.0988461 0.0665899 1.3717 0 -0.5 -4.5327 0.015 0 0 -0.346714 0.0353429 
448 1 -0.0329565 0.07557 1.40024 0 -0.5 -4.4705 0.015 0 0 -0.346714 0.0353429 
347 1 -0.0548177 0.11289 1.40765 0 -0.5 -4.45422 0.025 0 0 -1.60516 0.163625 
378 1 -0.121409 0.161198 1.41632 0 -0.5 -4.43509 0.015 0 0 -0.346714 0.0353429 
312 1 -0.134707 0.220718 1.41775 0 -0.5 -4.43195 0.025 0 0 -1.60516 0.163625 
417 1 -0.0160313 0.320054 1.41774 0 -0.5 -4.43195 0.015 0 0 -0.346714 0.0353429 
346 1 -0.153582 0.383017 1.40905 -0.0151472 -0.325165 -4.49038 0.025 0 0 -1.60516 0.163625 
419 1 -0.111609 0.0575188 1.43961 0 -0.5 -4.38329 0.015 0 0 -0.346714 0.0353429 
362 1 -0.0154426 0.107609 1.43591 0 -0.5 -4.39153 0.015 0 0 -0.346714 0.0353429 
359 1 -0.107325 0.265399 1.42729 0 -0.5 -4.41076 0.015 0 0 -0.346714 0.0353429 
303 1 -0.0551599 0.284479 1.43645 0 -0.5 -4.39035 0.025 0 0 -1.60516 0.163625 
334 1 -0.103439 0.320448 1.45006 0 -0.5 -4.35984 0.025 0 0 -1.60516 0.163625 
421 1 -0.0930175 0.137542 1.45785 0 -0.5 -4.34228 0.015 0 0 -0.346714 0.0353429 
325 1 -0.117824 0.181025 1.50532 0 -0.5 -4.23369 0.025 0 0 -1.60516 0.163625 
365 1 -0.139295 0.226321 1.50658 0.0322739 -0.84426 -4.1551 0.015 0 0 -0.346714 0.0353429 
309 1 -0.144284 0.0960309 1.54394 0 -0.5 -4.14324 0.025 0 0 -1.60516 0.163625 
320 1 -0.0648735 0.0969287 1.52384 0 -0.5 -4.19052 0.025 0 0 -1.60516 0.163625 
372 1 -0.0702168 0.280237 1.53088 0 -0.5 -4.17404 0.015 0 0 -0.346714 0.0353429 
447 1 -0.122284 0.361789 1.52498 0 -0.5 -4.18788 0.015 0 0 -0.346714 0.0353429 
430 1 -0.123083 0.143393 1.5575 0 -0.5 -4.11096 0.015 0 0 -0.346714 0.0353429 
403 1 -0.0833248 0.149397 1.56149 0 -0.5 -4.10145 0.015 0 0 -0.346714 0.0353429 
387 1 -0.0901615 0.258452 1.54832 0 -0.5 -4.13284 0.015 0 0 -0.346714 0.0353429 
393 1 -0.015571 0.320279 1.57595 0 -0.5 -4.06672 0.015 0 0 -0.346714 0.0353429 
338 1 -0.0583644 0.349556 1.54641 0 -0.5 -4.13735 0.025 0 0 -1.60516 0.163625 
379 1 -0.0327871 0.0983292 1.58078 0 -0.5 -4.05505 0.015 0 0 -0.346714 0.0353429 
316 1 -0.0983119 0.0821107 1.62554 0 -0.5 -3.94527 0.025 0 0 -1.60516 0.163625 
357 1 -0.0584785 0.147214 1.61731 0 -0.5 -3.96568 0.015 0 0 -0.346714 0.0353429 
380 1 -0.127355 0.257976 1.63517 0 -0.5 -3.92124 0.015 0 0 -0.346714 0.0353429 
301 1 -0.0860404 0.319955 1.62741 0.012148 -0.512208 -3.94065 0.025 0 0 -1.60516 0.163625 
428 1 -0.0387226 0.332002 1.63381 0 -0.5 -3.92467 0.015 0 0 -0.346714 0.0353429 
329 1 -0.126188 0.360439 1.62244 -0.0138001 -0.485947 -3.95306 0.025 0 0 -1.60516 0.163625 
450 1 -0.0322061 0.376898 1.63545 0 -0.5 -3.92055 0.015 0 0 -0.346714 0.0353429 
364 1 -0.0453235 0.112807 1.64159 0 -0.5 -3.90515 0.015 0 0 -0.346714 0.0353429 
321 1 -0.126579 0.153251 1.64292 0 -0.5 -3.90182 0.025 0 0 -1.60516 0.163625 
410 1 -0.145474 0.202536 1.64892 0 -0.5 -3.88671 0.015 0 0 -0.346714 0.0353429 
333 1 -0.0978849 0.215337 1.6442 0 -0.5 -3.89858 0.025 0 0 -1.60516 0.163625 
337 1 -0.142368 0.298838 1.66347 0 -0.5 -3.84982 0.025 0 0 -1.60516 0.163625 
332 1 -0.0814262 0.144266 1.71513 0 -0.5 -3.71582 0.025 0 0 -1.60516 0.163625 
400 1 -0.135353 0.187905 1.72 0 -0.5 -3.70297 0.015 0 0 -0.346714 0.0353429 
425 1 -0.074083 0.0907868 1.73408 0 -0.5 -3.66549 0.015 0 0 -0.346714 0.0353429 
311 1 -0.0354402 0.106368 1.74814 0 -0.5 -3.62763 0.025 0 0 -1.60516 0.163625 
345 1 -0.128178 0.154674 1.75844 0 -0.5 -3.59967 0.025 0 0 -1.60516 0.163625 
317 1 -0.129905 0.230055 1.74357 0 -0.5 -3.63999 0.025 0 0 -1.60516 0.163625 
366 1 -0.144217 0.307022 1.74039 0 -0.5 -3.64852 0.015 0 0 -0.346714 0.0353429 
339 1 -0.0802774 0.35266 1.73337 0 -0.5 -3.66736 0.025 0 0 -1.60516 0.163625 
405 1 -0.038992 0.34139 1.74792 0 -0.5 -3.62821 0.015 0 0 -0.346714 0.0353429 
305 1 -0.0452536 0.389472 1.73407 0 -0.5 -3.66549 0.025 0 0 -1.60516 0.163625 
544 1 -0.0435498 0.452139 1.73166 -0.39021 -0.130746 -3.74893 0.015 0 0 -0.346714 0.0353429 
404 1 -0.119976 0.111844 1.76297 0 -0.5 -3.58731 0.015 0 0 -0.346714 0.0353429 
435 1 -0.0960728 0.191976 1.76356 0 -0.5 -3.58574 0.015 0 0 -0.346714 0.0353429 
444 1 -0.0159467 0.387826 1.78468 0 -0.5 -3.52747 0.015 0 0 -0.346714 0.0353429 
714 1 -0.0240605 0.156326 1.81058 0 -0.5 -3.45468 0.015 0 0 -0.346714 0.0353429 
676 1 -0.132839 0.183867 1.8234 0 -0.5 -3.41808 0.015 0 0 -0.346714 0.0353429 
675 1 -0.133795 0.356861 1.80011 -0.0349785 -0.349711 -3.58256 0.015 0 0 -0.346714 0.0353429 
690 1 -0.0634806 0.354565 1.81553 0 -0.5 -3.44055 0.015 0 0 -0.346714 0.0353429 
634 1 -0.102181 0.376021 1.81723 0 -0.5 -3.43574 0.025 0 0 -1.60516 0.163625 
652 1 -0.0683105 0.188338 1.83529 0 -0.5 -3.38375 0.015 0 0 -0.346714 0.0353429 
629 1 -0.113195 0.235381 1.84474 0 -0.5 -3.35628 0.025 0 0 -1.60516 0.163625 
669 1 -0.0318411 0.365893 1.83808 0 -0.5 -3.37571 0.015 0 0 -0.346714 0.0353429 
608 1 -0.0938106 0.124793 1.86736 0 -0.5 -3.28948 0.025 0 0 -1.60516 0.163625 
682 1 -0.0469368 0.120781 1.87376 0 -0.5 -3.27035 0.015 0 0 -0.346714 0.0353429 
657 1 -0.0480729 0.158927 1.88084 0 -0.5 -3.24906 0.015 0 0 -0.346714 0.0353429 
606 1 -0.122658 0.310775 1.86988 0.00210743 -0.508228 -3.27661 0.025 0 0 -1.60516 0.163625 
708 1 -0.0786991 0.349401 1.86884 0 -0.5 -3.28506 0.015 0 0 -0.346714 0.0353429 
660 1 -0.0183143 0.362377 1.88352 0 -0.5 -3.24092 0.015 0 0 -0.346714 0.0353429 
701 1 -0.0870486 0.407674 1.87149 0 -0.5 -3.27711 0.015 0 0 -0.346714 0.0353429 
735 1 -0.0832421 0.202669 1.89288 0 -0.5 -3.21247 0.015 0 0 -0.346714 0.0353429 
618 1 -0.13283 0.169164 1.92523 0 -0.5 -3.11211 0.025 0 0 -1.60516 0.163625 
707 1 -0.0900659 0.151989 1.93705 0 -0.5 -3.07464 0.015 0 0 -0.346714 0.0353429 
680 1 -0.0791761 0.206881 1.94727 0 -0.5 -3.04187 0.015 0 0 -0.346714 0.0353429 
709 1 -0.101732 0.251531 1.9189 0 -0.5 -3.13202 0.015 0 0 -0.346714 0.0353429 
649 1 -0.129761 0.285177 1.93791 0 -0.5 -3.07189 0.025 0 0 -1.60516 0.163625 
750 1 -0.0862874 0.316179 1.92676 0 -0.5 -3.1073 0.015 0 0 -0.346714 0.0353429 
677 1 -0.113879 0.142303 1.9772 0 -0.5 -2.94377 0.015 0 0 -0.346714 0.0353429 
640 1 -0.0489559 0.171517 1.95529 0 -0.5 -3.01587 0.025 0 0 -1.60516 0.163625 
616 1 -0.140255 0.377264 1.95583 0 -0.5 -3.01411 0.025 0 0 -1.60516 0.163625 
725 1 -0.0732043 0.379614 1.97021 0 -0.5 -2.96692 0.015 0 0 -0.346714 0.0353429 
712 1 -0.0372677 0.42255 1.96359 0 -0.5 -2.9888 0.015 0 0 -0.346714 0.0353429 
736 1 -0.0864872 0.235793 2.0097 0 -0.5 -2.83341 0.015 0 0 -0.346714 0.0353429 
744 1 -0.107021 0.328725 1.9889 0 -0.5 -2.90453 0.015 0 0 -0.346714 0.0353429 
685 1 -0.0969629 0.375703 2.00334 0 -0.5 -2.85528 0.015 0 0 -0.346714 0.0353429 
610 1 -0.108705 0.175549 2.03698 0 -0.5 -2.73727 0.025 0 0 -1.60516 0.163625 
692 1 -0.0389882 0.19707 2.02756 0 -0.5 -2.77082 0.015 0 0 -0.346714 0.0353429 
625 1 -0.101027 0.266678 2.03879 0.250947 -0.205125 -2.90669 0.025 0 0 -1.60516 0.163625 
722 1 -0.124711 0.374428 2.02762 0 -0.5 -2.77062 0.015 0 0 -0.346714 0.0353429 
683 1 -0.0829948 0.376592 2.04035 0 -0.5 -2.7252 0.015 0 0 -0.346714 0.0353429 
620 1 -0.0294016 0.407755 2.03469 0 -0.5 -2.74551 0.025 0 0 -1.60516 0.163625 
674 1 -0.11657 0.431544 2.02389 0 -0.5 -2.78377 0.015 0 0 -0.346714 0.0353429 
699 1 -0.0856858 0.43342 2.0222 0 -0.5 -2.78975 0.015 0 0 -0.346714 0.0353429 
748 1 -0.0192599 0.164831 2.04972 0 -0.5 -2.69126 0.015 0 0 -0.346714 0.0353429 
678 1 -0.0973357 0.305233 2.06647 0 -0.5 -2.62946 0.015 0 0 -0.346714 0.0353429 
636 1 -0.149776 0.350476 2.05914 0 -0.5 -2.65663 0.025 0 0 -1.60516 0.163625 
732 1 -0.0691875 0.413647 2.04458 0 -0.5 -2.7099 0.015 0 0 -0.346714 0.0353429 
705 1 -0.0946775 0.153279 2.07941 0 -0.5 -2.5807 0.015 0 0 -0.346714 0.0353429 
730 1 -0.0250727 0.165246 2.10119 0 -0.5 -2.49663 0.015 0 0 -0.346714 0.0353429 
641 1 -0.14493 0.219136 2.08601 -0.0165282 -0.51578 -2.54491 0.025 0 0 -1.60516 0.163625 
694 1 -0.138308 0.317231 2.09466 0 -0.5 -2.52214 0.015 0 0 -0.346714 0.0353429 
733 1 -0.0833844 0.350272 2.09532 0 -0.5 -2.51959 0.015 0 0 -0.346714 0.0353429 
696 1 -0.058387 0.379843 2.07558 0 -0.5 -2.59522 0.015 0 0 -0.346714 0.0353429 
698 1 -0.111785 0.393616 2.08704 0 -0.5 -2.55157 0.015 0 0 -0.346714 0.0353429 
648 1 -0.130879 0.434847 2.08141 0 -0.5 -2.57315 0.025 0 0 -1.60516 0.163625 
644 1 -0.140738 0.163303 2.11211 0 -0.5 -2.45327 0.025 0 0 -1.60516 0.163625 
637 1 -0.0618774 0.184817 2.10665 0 -0.5 -2.47505 0.025 0 0 -1.60516 0.163625 
729 1 -0.0894542 0.215908 2.1083 0 -0.5 -2.46848 0.015 0 0 -0.346714 0.0353429 
724 1 -0.0903421 0.253009 2.11888 0 -0.5 -2.4261 0.015 0 0 -0.346714 0.0353429 
745 1 -0.107087 0.296874 2.12543 0.249023 -0.340208 -2.53142 0.015 0 0 -0.346714 0.0353429 
628 1 -0.0879532 0.381921 2.12954 -0.035052 -0.643145 -2.35695 0.025 0 0 -1.60516 0.163625 
639 1 -0.0712928 0.454633 2.11144 0.113569 0.037071 -2.54308 0.025 0 0 -1.60516 0.163625 
679 1 -0.13837 0.168158 2.1619 0 -0.5 -2.2454 0.015 0 0 -0.346714 0.0353429 
684 1 -0.0877228 0.198489 2.14525 0 -0.5 -2.31701 0.015 0 0 -0.346714 0.0353429 
706 1 -0.129002 0.217926 2.1662 0 -0.5 -2.22656 0.015 0 0 -0.346714 0.0353429 
627 1 -0.145082 0.275527 2.15173 -0.00145318 -0.500708 -2.28874 0.025 0 0 -1.60516 0.163625 