ITEM: TIMESTEP
36000
ITEM: NUMBER OF ATOMS
600
ITEM: BOX BOUNDS mm mm mm
-1 1
-1 1
-0.05 2.85
ITEM: ATOMS id type x y z vx vy vz radius fx fy fz mass 
68 1 -0.0997213 0.0652714 0.908616 0 -0.5 -5.44346 0.015 0 0 -0.346714 0.0353429 
137 1 -0.0885211 0.112516 0.921838 -0.00924354 -0.479856 -5.4206 0.015 0 0 -0.346714 0.0353429 
45 1 -0.0943793 0.0162376 0.936677 0 -0.5 -5.39264 0.025 0 0 -1.60516 0.163625 
122 1 -0.0700917 0.0728574 0.937096 0.00811842 -0.517403 -5.39102 0.015 0 0 -0.346714 0.0353429 
33 1 -0.129286 0.256605 0.930684 0 -0.5 -5.40353 0.025 0 0 -1.60516 0.163625 
119 1 -0.0370509 0.00518864 0.965614 0 -0.5 -5.33977 0.015 0 0 -0.346714 0.0353429 
75 1 -0.0493142 0.0556721 0.982582 0 -0.5 -5.30847 0.015 0 0 -0.346714 0.0353429 
43 1 -0.116198 0.167785 0.957423 0 -0.5 -5.35477 0.025 0 0 -1.60516 0.163625 
78 1 -0.0422369 0.263955 0.973228 0 -0.5 -5.32574 0.015 0 0 -0.346714 0.0353429 
111 1 -0.0487783 0.3001 0.95801 0 -0.5 -5.3537 0.015 0 0 -0.346714 0.0353429 
89 1 -0.129145 0.0843079 0.988848 0 -0.5 -5.2969 0.015 0 0 -0.346714 0.0353429 
59 1 -0.0865612 0.212868 1.00269 0 -0.5 -5.27119 0.015 0 0 -0.346714 0.0353429 
92 1 -0.131017 0.307327 1.01732 0 -0.5 -5.24392 0.015 0 0 -0.346714 0.0353429 
26 1 -0.0687057 0.132167 1.06043 0.14857 -0.341553 -5.21297 0.025 0 0 -1.60516 0.163625 
98 1 -0.147127 0.156442 1.07116 0 -0.5 -5.14219 0.015 0 0 -0.346714 0.0353429 
151 1 -0.0686397 0.238527 1.0706 0 -0.5 -5.14327 0.015 0 0 -0.346714 0.0353429 
8 1 -0.104188 0.023463 1.08735 0 -0.5 -5.11119 0.025 0 0 -1.60516 0.163625 
3 1 -0.141317 0.221388 1.09477 0 -0.5 -5.09697 0.025 0 0 -1.60516 0.163625 
72 1 -0.105673 0.258796 1.10752 0 -0.5 -5.07234 0.015 0 0 -0.346714 0.0353429 
100 1 -0.0681017 0.091921 1.12588 0 -0.5 -5.03673 0.015 0 0 -0.346714 0.0353429 
140 1 -0.125739 0.133556 1.12129 0 -0.5 -5.04566 0.015 0 0 -0.346714 0.0353429 
118 1 -0.0372647 0.293681 1.13071 0 -0.5 -5.02732 0.015 0 0 -0.346714 0.0353429 
40 1 -0.104474 0.310198 1.12234 0 -0.5 -5.0436 0.025 0 0 -1.60516 0.163625 
51 1 -0.156631 0.0508117 1.16743 -0.0265052 -0.519812 -4.94775 0.025 0 0 -1.60516 0.163625 
117 1 -0.0596227 0.0350208 1.14484 0 -0.5 -4.99965 0.015 0 0 -0.346714 0.0353429 
148 1 -0.156839 0.16281 1.17152 -0.171679 -0.397353 -5.04899 0.015 0 0 -0.346714 0.0353429 
90 1 -0.146535 0.311667 1.19832 0 -0.5 -4.89361 0.015 0 0 -0.346714 0.0353429 
60 1 -0.0770515 0.0439276 1.21634 0 -0.5 -4.85731 0.015 0 0 -0.346714 0.0353429 
11 1 -0.10109 0.200496 1.21308 0.022917 -0.457889 -4.88647 0.025 0 0 -1.60516 0.163625 
50 1 -0.130982 0.268355 1.21766 0 -0.5 -4.85466 0.025 0 0 -1.60516 0.163625 
105 1 -0.17017 0.186211 1.25272 -0.321192 -0.368687 -4.77018 0.015 0 0 -0.346714 0.0353429 
74 1 -0.0790012 0.255893 1.24725 0 -0.5 -4.79453 0.015 0 0 -0.346714 0.0353429 
76 1 -0.0202065 0.28407 1.26067 0 -0.5 -4.76696 0.015 0 0 -0.346714 0.0353429 
44 1 -0.125916 0.0355965 1.26961 0 -0.5 -4.74852 0.025 0 0 -1.60516 0.163625 
36 1 -0.103411 0.0823125 1.28768 0 -0.5 -4.71104 0.025 0 0 -1.60516 0.163625 
29 1 -0.0788351 0.298182 1.28263 0 -0.5 -4.72154 0.025 0 0 -1.60516 0.163625 
114 1 -0.0719979 0.112432 1.31743 -0.00040144 -0.499666 -4.64883 0.015 0 0 -0.346714 0.0353429 
54 1 -0.151226 0.119353 1.30415 -0.0956439 -0.529683 -4.65974 0.015 0 0 -0.346714 0.0353429 
73 1 -0.0639552 0.0617667 1.34265 0 -0.5 -4.59519 0.015 0 0 -0.346714 0.0353429 
2 1 -0.110349 0.209071 1.34741 0 -0.5 -4.58498 0.025 0 0 -1.60516 0.163625 
113 1 -0.118506 0.333198 1.33734 0 -0.5 -4.60647 0.015 0 0 -0.346714 0.0353429 
146 1 -0.109965 0.0489163 1.36125 0 -0.5 -4.55526 0.015 0 0 -0.346714 0.0353429 
57 1 -0.120673 0.165061 1.38373 0 -0.5 -4.5066 0.015 0 0 -0.346714 0.0353429 
88 1 -0.0666498 0.275919 1.37466 0 -0.5 -4.52632 0.015 0 0 -0.346714 0.0353429 
12 1 -0.0363281 0.318336 1.35999 0 -0.5 -4.55801 0.025 0 0 -1.60516 0.163625 
99 1 -0.146283 0.113517 1.3943 0 -0.5 -4.48355 0.015 0 0 -0.346714 0.0353429 
10 1 -0.0805387 0.260137 1.41672 0.0800593 -0.36273 -4.53043 0.025 0 0 -1.60516 0.163625 
66 1 -0.0281121 0.100823 1.42981 0 -0.5 -4.40517 0.015 0 0 -0.346714 0.0353429 
83 1 -0.108229 0.143146 1.42337 0 -0.5 -4.41949 0.015 0 0 -0.346714 0.0353429 
19 1 -0.0715757 0.123252 1.42649 0 -0.5 -4.41252 0.025 0 0 -1.60516 0.163625 
34 1 -0.138562 0.282511 1.41863 0 -0.5 -4.42999 0.025 0 0 -1.60516 0.163625 
81 1 -0.051385 0.283999 1.43297 0 -0.5 -4.3981 0.015 0 0 -0.346714 0.0353429 
71 1 -0.145263 0.326198 1.43672 0 -0.5 -4.38977 0.015 0 0 -0.346714 0.0353429 
24 1 -0.138394 0.0834519 1.462 0 -0.5 -4.33287 0.025 0 0 -1.60516 0.163625 
67 1 -0.0183057 0.0563887 1.45144 0 -0.5 -4.35671 0.015 0 0 -0.346714 0.0353429 
133 1 -0.127566 0.199944 1.46944 0 -0.5 -4.31599 0.015 0 0 -0.346714 0.0353429 
95 1 -0.10482 0.287312 1.47241 0 -0.5 -4.30922 0.015 0 0 -0.346714 0.0353429 
39 1 -0.0696793 0.33701 1.47251 0 -0.5 -4.30903 0.025 0 0 -1.60516 0.163625 
70 1 -0.107191 0.109924 1.50365 0 -0.5 -4.23751 0.015 0 0 -0.346714 0.0353429 
103 1 -0.135939 0.127722 1.49333 0 -0.5 -4.26135 0.015 0 0 -0.346714 0.0353429 
143 1 -0.11631 0.345682 1.50069 0 -0.5 -4.24438 0.015 0 0 -0.346714 0.0353429 
28 1 -0.0685748 0.0860701 1.52477 0 -0.5 -4.18837 0.025 0 0 -1.60516 0.163625 
97 1 -0.0338223 0.113144 1.51721 0 -0.5 -4.20602 0.015 0 0 -0.346714 0.0353429 
115 1 -0.076478 0.148431 1.51755 0 -0.5 -4.20524 0.015 0 0 -0.346714 0.0353429 
126 1 -0.117596 0.201892 1.53946 -0.0288748 -0.539424 -4.12387 0.015 0 0 -0.346714 0.0353429 
85 1 -0.13789 0.270015 1.51957 0 -0.5 -4.20053 0.015 0 0 -0.346714 0.0353429 
134 1 -0.137197 0.310367 1.53299 0 -0.5 -4.16904 0.015 0 0 -0.346714 0.0353429 
77 1 -0.0297287 0.338749 1.53886 0 -0.5 -4.15521 0.015 0 0 -0.346714 0.0353429 
120 1 -0.148569 0.359261 1.54053 0 -0.5 -4.15128 0.015 0 0 -0.346714 0.0353429 
96 1 -0.131998 0.113081 1.55496 0 -0.5 -4.11705 0.015 0 0 -0.346714 0.0353429 
38 1 -0.121616 0.154188 1.57171 0 -0.5 -4.07692 0.025 0 0 -1.60516 0.163625 
130 1 -0.0642546 0.148441 1.60269 0 -0.5 -4.00168 0.015 0 0 -0.346714 0.0353429 
23 1 -0.134189 0.290519 1.60198 0 -0.5 -4.00345 0.025 0 0 -1.60516 0.163625 
31 1 -0.140814 0.0908773 1.63215 0 -0.5 -3.92879 0.025 0 0 -1.60516 0.163625 
150 1 -0.100106 0.125207 1.62064 0 -0.5 -3.95744 0.015 0 0 -0.346714 0.0353429 
18 1 -0.106015 0.355686 1.62162 0 -0.5 -3.95499 0.025 0 0 -1.60516 0.163625 
4 1 -0.0330873 0.368857 1.621 0 -0.5 -3.95656 0.025 0 0 -1.60516 0.163625 
110 1 -0.0868918 0.0804165 1.6528 0 -0.5 -3.8769 0.015 0 0 -0.346714 0.0353429 
93 1 -0.0244706 0.0921578 1.66319 0 -0.5 -3.85051 0.015 0 0 -0.346714 0.0353429 
106 1 -0.119489 0.404508 1.66295 -0.0998962 -0.230395 -4.03753 0.015 0 0 -0.346714 0.0353429 
17 1 -0.134634 0.206027 1.66842 0 -0.5 -3.83717 0.025 0 0 -1.60516 0.163625 
136 1 -0.0832352 0.299008 1.66589 0 -0.5 -3.84364 0.015 0 0 -0.346714 0.0353429 
30 1 -0.0481876 0.326857 1.67191 0 -0.5 -3.82824 0.025 0 0 -1.60516 0.163625 
109 1 -0.0676248 0.37408 1.6711 0 -0.5 -3.8303 0.015 0 0 -0.346714 0.0353429 
108 1 -0.089121 0.112824 1.70316 0 -0.5 -3.74731 0.015 0 0 -0.346714 0.0353429 
69 1 -0.020474 0.133083 1.71974 0 -0.5 -3.70365 0.015 0 0 -0.346714 0.0353429 
35 1 -0.146938 0.306792 1.72465 0 -0.5 -3.69061 0.025 0 0 -1.60516 0.163625 
102 1 -0.11709 0.112899 1.74736 0 -0.5 -3.62978 0.015 0 0 -0.346714 0.0353429 
14 1 -0.0571303 0.104975 1.7552 0 -0.5 -3.6085 0.025 0 0 -1.60516 0.163625 
139 1 -0.104092 0.170572 1.74724 0 -0.5 -3.63008 0.015 0 0 -0.346714 0.0353429 
144 1 -0.0691235 0.173474 1.74656 0 -0.5 -3.63194 0.015 0 0 -0.346714 0.0353429 
22 1 -0.102489 0.238306 1.74354 0 -0.5 -3.64008 0.025 0 0 -1.60516 0.163625 
55 1 -0.0959983 0.344396 1.75862 -7.52477e-06 -0.49998 -3.59921 0.015 0 0 -0.346714 0.0353429 
1 1 -0.145498 0.444122 1.72849 -0.021394 -0.0706631 -3.90249 0.025 0 0 -1.60516 0.163625 
141 1 -0.136875 0.186264 1.76588 0 -0.5 -3.57936 0.015 0 0 -0.346714 0.0353429 
149 1 -0.0827629 0.217362 1.78525 0.199959 -0.45766 -3.83725 0.015 0 0 -0.346714 0.0353429 
87 1 -0.113676 0.307588 1.78693 0 -0.5 -3.52119 0.015 0 0 -0.346714 0.0353429 
21 1 -0.0470047 0.3895 1.77635 0 -0.5 -3.55052 0.025 0 0 -1.60516 0.163625 
107 1 -0.141609 0.101948 1.8057 0 -0.5 -3.46851 0.015 0 0 -0.346714 0.0353429 
94 1 -0.16632 0.258722 1.8004 -0.356499 -0.190573 -3.58675 0.015 0 0 -0.346714 0.0353429 
147 1 -0.100309 0.377431 1.81688 0 -0.5 -3.43672 0.015 0 0 -0.346714 0.0353429 
142 1 -0.0724928 0.126748 1.83925 0 -0.5 -3.37227 0.015 0 0 -0.346714 0.0353429 
112 1 -0.073338 0.185279 1.82411 0 -0.5 -3.41602 0.015 0 0 -0.346714 0.0353429 
84 1 -0.116406 0.265786 1.82169 0 -0.5 -3.42299 0.015 0 0 -0.346714 0.0353429 
80 1 -0.102893 0.312893 1.85174 0 -0.5 -3.33578 0.015 0 0 -0.346714 0.0353429 
47 1 -0.140465 0.34945 1.83932 0 -0.5 -3.37208 0.025 0 0 -1.60516 0.163625 
145 1 -0.0934491 0.342113 1.84074 0 -0.5 -3.36796 0.015 0 0 -0.346714 0.0353429 
32 1 -0.157549 0.115251 1.87264 -0.0613285 -0.540948 -3.26851 0.025 0 0 -1.60516 0.163625 
6 1 -0.0962648 0.157367 1.85656 0.101461 -0.428163 -3.33145 0.025 0 0 -1.60516 0.163625 
135 1 -0.140472 0.194893 1.87172 0 -0.5 -3.27643 0.015 0 0 -0.346714 0.0353429 
15 1 -0.0873995 0.252755 1.86984 0.0430154 -0.390763 -3.22425 0.025 0 0 -1.60516 0.163625 
62 1 -0.0849655 0.402406 1.87154 0 -0.5 -3.27702 0.015 0 0 -0.346714 0.0353429 
138 1 -0.0317395 0.129316 1.88475 0 -0.5 -3.23719 0.015 0 0 -0.346714 0.0353429 
128 1 -0.145291 0.279677 1.88589 0 -0.5 -3.23375 0.015 0 0 -0.346714 0.0353429 
121 1 -0.0679495 0.384078 1.89955 0 -0.5 -3.19206 0.015 0 0 -0.346714 0.0353429 
61 1 -0.0231802 0.122935 1.94174 0 -0.5 -3.05963 0.015 0 0 -0.346714 0.0353429 
129 1 -0.0553418 0.153199 1.92439 0 -0.5 -3.11476 0.015 0 0 -0.346714 0.0353429 
79 1 -0.0179342 0.156984 1.9418 0 -0.5 -3.05943 0.015 0 0 -0.346714 0.0353429 
13 1 -0.146779 0.235821 1.93419 0 -0.5 -3.08376 0.025 0 0 -1.60516 0.163625 
101 1 -0.102489 0.245824 1.93146 0 -0.5 -3.09239 0.015 0 0 -0.346714 0.0353429 
91 1 -0.124131 0.342132 1.94211 0 -0.5 -3.05845 0.015 0 0 -0.346714 0.0353429 
37 1 -0.0716655 0.348665 1.93109 0 -0.5 -3.09357 0.025 0 0 -1.60516 0.163625 
46 1 -0.032303 0.410569 1.93459 0 -0.5 -3.08248 0.025 0 0 -1.60516 0.163625 
52 1 -0.100497 0.13849 1.94723 0 -0.5 -3.04197 0.015 0 0 -0.346714 0.0353429 
5 1 -0.137704 0.166412 1.95433 0 -0.5 -3.01901 0.025 0 0 -1.60516 0.163625 
7 1 -0.0712578 0.205449 1.95653 0 -0.5 -3.01185 0.025 0 0 -1.60516 0.163625 
20 1 -0.124339 0.293888 1.95213 0 -0.5 -3.02618 0.025 0 0 -1.60516 0.163625 
65 1 -0.147981 0.143097 1.99965 0 -0.5 -2.86794 0.015 0 0 -0.346714 0.0353429 
58 1 -0.0969698 0.239891 1.9908 0 -0.5 -2.89806 0.015 0 0 -0.346714 0.0353429 
86 1 -0.142939 0.335059 1.97954 0 -0.5 -2.93592 0.015 0 0 -0.346714 0.0353429 
124 1 -0.136447 0.365377 1.99072 0 -0.5 -2.89835 0.015 0 0 -0.346714 0.0353429 
9 1 -0.0320364 0.369159 1.98178 0 -0.5 -2.92847 0.025 0 0 -1.60516 0.163625 
41 1 -0.107908 0.420758 1.99799 0 -0.5 -2.87363 0.025 0 0 -1.60516 0.163625 
132 1 -0.0234712 0.176168 2.03518 0 -0.5 -2.74375 0.015 0 0 -0.346714 0.0353429 
48 1 -0.144727 0.233852 2.03468 0 -0.5 -2.74551 0.025 0 0 -1.60516 0.163625 
53 1 -0.106432 0.27834 2.03601 0 -0.5 -2.7408 0.015 0 0 -0.346714 0.0353429 
104 1 -0.138444 0.307217 2.02342 0 -0.5 -2.78544 0.015 0 0 -0.346714 0.0353429 
131 1 -0.025873 0.40804 2.01738 0 -0.5 -2.80663 0.015 0 0 -0.346714 0.0353429 
49 1 -0.0613084 0.15371 2.04742 0 -0.5 -2.6996 0.025 0 0 -1.60516 0.163625 
127 1 -0.0304133 0.199621 2.06952 0 -0.5 -2.61808 0.015 0 0 -0.346714 0.0353429 
16 1 -0.129915 0.377079 2.04934 0 -0.5 -2.69264 0.025 0 0 -1.60516 0.163625 
82 1 -0.0851821 0.367627 2.05324 0 -0.5 -2.67841 0.015 0 0 -0.346714 0.0353429 
27 1 -0.0637137 0.403885 2.04974 0 -0.5 -2.69116 0.025 0 0 -1.60516 0.163625 
63 1 -0.147823 0.433713 2.05893 0 -0.5 -2.65742 0.015 0 0 -0.346714 0.0353429 
56 1 -0.11556 0.431119 2.06943 0 -0.5 -2.61837 0.015 0 0 -0.346714 0.0353429 
25 1 -0.104447 0.187785 2.07632 0 -0.5 -2.59247 0.025 0 0 -1.60516 0.163625 
42 1 -0.132916 0.280796 2.08492 0 -0.5 -2.55971 0.025 0 0 -1.60516 0.163625 
123 1 -0.11925 0.337492 2.08709 0 -0.5 -2.55137 0.015 0 0 -0.346714 0.0353429 
64 1 -0.145219 0.401177 2.09528 0 -0.5 -2.51968 0.015 0 0 -0.346714 0.0353429 
125 1 -0.0960051 0.393127 2.09638 0 -0.5 -2.51547 0.015 0 0 -0.346714 0.0353429 
392 1 -0.0201822 0.151377 2.10502 0 -0.5 -2.48152 0.015 0 0 -0.346714 0.0353429 
361 1 -0.0655065 0.179159 2.10357 0 -0.5 -2.48721 0.015 0 0 -0.346714 0.0353429 
429 1 -0.0117062 0.203934 2.11926 0.187199 -0.301038 -2.51973 0.015 0 0 -0.346714 0.0353429 
375 1 -0.132504 0.216213 2.10902 0 -0.5 -2.46563 0.015 0 0 -0.346714 0.0353429 
353 1 -0.0778865 0.23251 2.11996 0 -0.5 -2.42168 0.015 0 0 -0.346714 0.0353429 
432 1 -0.110656 0.292023 2.12687 0 -0.5 -2.39353 0.015 0 0 -0.346714 0.0353429 
391 1 -0.0665259 0.37819 2.10436 0 -0.5 -2.48407 0.015 0 0 -0.346714 0.0353429 
423 1 -0.035066 0.396352 2.12594 0 -0.5 -2.39735 0.015 0 0 -0.346714 0.0353429 
370 1 -0.0476722 0.450061 2.11995 0 -0.5 -2.42178 0.015 0 0 -0.346714 0.0353429 
449 1 -0.121601 0.15697 2.13302 0 -0.5 -2.36822 0.015 0 0 -0.346714 0.0353429 
348 1 -0.0438883 0.171162 2.1419 -0.0150753 -0.514502 -2.32407 0.025 0 0 -1.60516 0.163625 
409 1 -0.1116 0.264279 2.14651 0 -0.5 -2.31161 0.015 0 0 -0.346714 0.0353429 
304 1 -0.147639 0.390299 2.15949 0 -0.5 -2.25589 0.025 0 0 -1.60516 0.163625 
434 1 -0.110177 0.424235 2.14534 0 -0.5 -2.31662 0.015 0 0 -0.346714 0.0353429 
368 1 -0.0426125 0.202103 2.18412 0 -0.5 -2.14612 0.015 0 0 -0.346714 0.0353429 
328 1 -0.101567 0.22736 2.19175 0 -0.5 -2.111 0.025 0 0 -1.60516 0.163625 
414 1 -0.12165 0.334412 2.17571 0 -0.5 -2.18418 0.015 0 0 -0.346714 0.0353429 
416 1 -0.148865 0.355752 2.18167 0 -0.5 -2.1573 0.015 0 0 -0.346714 0.0353429 
342 1 -0.0942786 0.378007 2.19231 0 -0.5 -2.10835 0.025 0 0 -1.60516 0.163625 
422 1 -0.0856494 0.418628 2.18327 0 -0.5 -2.15004 0.015 0 0 -0.346714 0.0353429 
327 1 -0.047146 0.427396 2.17314 0 -0.5 -2.19576 0.025 0 0 -1.60516 0.163625 
440 1 -0.074831 0.178633 2.20326 0 -0.5 -2.05675 0.015 0 0 -0.346714 0.0353429 
307 1 -0.141488 0.196316 2.1971 0 -0.5 -2.08598 0.025 0 0 -1.60516 0.163625 
388 1 -0.0545692 0.242431 2.21603 -0 0 -2 0.015 0 0 0 0.0353429 
323 1 -0.131477 0.311783 2.21514 -0 0 -2 0.025 0 0 0 0.163625 
352 1 -0.144025 0.415939 2.20822 0 -0.5 -2.03301 0.015 0 0 -0.346714 0.0353429 
406 1 -0.0920408 0.414471 2.21979 -0 0 -2 0.015 0 0 0 0.0353429 
330 1 -0.125578 0.472028 2.21022 0 -0.5 -2.0233 0.025 0 0 -1.60516 0.163625 
441 1 -0.0895132 0.456957 2.19728 0 -0.5 -2.0851 0.015 0 0 -0.346714 0.0353429 
331 1 -0.138106 0.176551 2.24414 -0 0 -2 0.025 0 0 0 0.163625 
418 1 -0.0554251 0.183195 2.23798 -0 0 -2 0.015 0 0 0 0.0353429 
395 1 -0.110093 0.233322 2.24121 -0 0 -2 0.015 0 0 0 0.0353429 
313 1 -0.0392615 0.218859 2.25034 -0 0 -2 0.025 0 0 0 0.163625 
318 1 -0.126425 0.383688 2.23689 -0 0 -2 0.025 0 0 0 0.163625 
336 1 -0.025747 0.416073 2.24081 -0 0 -2 0.025 0 0 0 0.163625 
374 1 -0.133879 0.440362 2.25143 -0 0 -2 0.015 0 0 0 0.0353429 
377 1 -0.128279 0.19547 2.28002 -0 0 -2 0.015 0 0 0 0.0353429 
315 1 -0.0970947 0.282811 2.26138 -0 0 -2 0.025 0 0 0 0.163625 
445 1 -0.0938501 0.351198 2.26879 -0 0 -2 0.015 0 0 0 0.0353429 
386 1 -0.118095 0.41734 2.27808 -0 0 -2 0.015 0 0 0 0.0353429 
407 1 -0.0713596 0.410324 2.26208 -0 0 -2 0.015 0 0 0 0.0353429 
310 1 -0.0919271 0.448743 2.26001 -0 0 -2 0.025 0 0 0 0.163625 
302 1 -0.0567477 0.188796 2.29708 -0 0 -2 0.025 0 0 0 0.163625 
431 1 -0.13363 0.212461 2.31577 -0 0 -2 0.015 0 0 0 0.0353429 
401 1 -0.0913429 0.220505 2.29611 -0 0 -2 0.015 0 0 0 0.0353429 
355 1 -0.0483468 0.232484 2.31211 -0 0 -2 0.015 0 0 0 0.0353429 
314 1 -0.136534 0.255606 2.30152 -0 0 -2 0.025 0 0 0 0.163625 
439 1 -0.132801 0.307992 2.29462 -0 0 -2 0.015 0 0 0 0.0353429 
344 1 -0.147144 0.347235 2.28784 -0 0 -2 0.025 0 0 0 0.163625 
354 1 -0.0927402 0.400508 2.31497 -0 0 -2 0.015 0 0 0 0.0353429 
413 1 -0.0512121 0.403311 2.30902 -0 0 -2 0.015 0 0 0 0.0353429 
442 1 -0.149932 0.462501 2.30969 -0 0 -2 0.015 0 0 0 0.0353429 
408 1 -0.087028 0.469634 2.31423 -0 0 -2 0.015 0 0 0 0.0353429 
446 1 -0.116317 0.366731 2.32659 -0 0 -2 0.015 0 0 0 0.0353429 
411 1 -0.0485728 0.448156 2.33061 -0 0 -2 0.015 0 0 0 0.0353429 
382 1 -0.111765 0.470126 2.34026 -0 0 -2 0.015 0 0 0 0.0353429 
324 1 -0.0498553 0.178658 2.35919 -0 0 -2 0.025 0 0 0 0.163625 
350 1 -0.147794 0.212625 2.35409 -0 0 -2 0.025 0 0 0 0.163625 
399 1 -0.074527 0.226788 2.34804 -0 0 -2 0.015 0 0 0 0.0353429 
437 1 -0.0723044 0.254202 2.36314 -0 0 -2 0.015 0 0 0 0.0353429 
335 1 -0.126459 0.273678 2.35398 -0 0 -2 0.025 0 0 0 0.163625 
436 1 -0.0854574 0.281776 2.3477 -0 0 -2 0.015 0 0 0 0.0353429 
341 1 -0.148816 0.394703 2.34911 -0 0 -2 0.025 0 0 0 0.163625 
385 1 -0.0696212 0.401745 2.3575 -0 0 -2 0.015 0 0 0 0.0353429 
394 1 -0.145405 0.426519 2.37567 -0 0 -2 0.015 0 0 0 0.0353429 
384 1 -0.142553 0.470858 2.35951 -0 0 -2 0.015 0 0 0 0.0353429 
427 1 -0.116274 0.458291 2.368 -0 0 -2 0.015 0 0 0 0.0353429 
389 1 -0.0230912 0.468001 2.34971 -0 0 -2 0.015 0 0 0 0.0353429 
358 1 -0.127277 0.195217 2.38931 -0 0 -2 0.015 0 0 0 0.0353429 
367 1 -0.106717 0.230156 2.3817 -0 0 -2 0.015 0 0 0 0.0353429 
376 1 -0.0824761 0.237462 2.40025 -0 0 -2 0.015 0 0 0 0.0353429 
326 1 -0.145564 0.324649 2.39023 -0 0 -2 0.025 0 0 0 0.163625 
424 1 -0.118548 0.427887 2.39049 -0 0 -2 0.015 0 0 0 0.0353429 
319 1 -0.0687817 0.474805 2.38788 -0 0 -2 0.025 0 0 0 0.163625 
426 1 -0.0179373 0.455344 2.38149 -0 0 -2 0.015 0 0 0 0.0353429 
433 1 -0.118613 0.17501 2.41362 -0 0 -2 0.015 0 0 0 0.0353429 
420 1 -0.037203 0.182681 2.4156 -0 0 -2 0.015 0 0 0 0.0353429 
402 1 -0.101682 0.217667 2.41749 -0 0 -2 0.015 0 0 0 0.0353429 
363 1 -0.0911777 0.291602 2.42991 -0 0 -2 0.015 0 0 0 0.0353429 
360 1 -0.116599 0.315716 2.42904 -0 0 -2 0.015 0 0 0 0.0353429 
306 1 -0.116739 0.395569 2.41687 -0 0 -2 0.025 0 0 0 0.163625 
397 1 -0.0557758 0.403383 2.43194 -0 0 -2 0.015 0 0 0 0.0353429 
371 1 -0.0449321 0.442824 2.42813 -0 0 -2 0.015 0 0 0 0.0353429 
412 1 -0.0937388 0.465344 2.41997 -0 0 -2 0.015 0 0 0 0.0353429 
322 1 -0.131733 0.197689 2.44651 -0 0 -2 0.025 0 0 0 0.163625 
308 1 -0.0755208 0.211588 2.46533 -0 0 -2 0.025 0 0 0 0.163625 
398 1 -0.0484497 0.240461 2.45925 -0 0 -2 0.015 0 0 0 0.0353429 
438 1 -0.0987495 0.291508 2.46631 -0 0 -2 0.015 0 0 0 0.0353429 
373 1 -0.136858 0.343079 2.45144 -0 0 -2 0.015 0 0 0 0.0353429 
396 1 -0.0958984 0.364505 2.44764 -0 0 -2 0.015 0 0 0 0.0353429 
369 1 -0.138958 0.401078 2.45295 -0 0 -2 0.015 0 0 0 0.0353429 
383 1 -0.0262689 0.419173 2.45354 -0 0 -2 0.015 0 0 0 0.0353429 
381 1 -0.0827007 0.433694 2.4447 -0 0 -2 0.015 0 0 0 0.0353429 
415 1 -0.127182 0.240475 2.47763 -0 0 -2 0.015 0 0 0 0.0353429 
343 1 -0.140775 0.298259 2.48158 -0 0 -2 0.025 0 0 0 0.163625 
356 1 -0.111476 0.333774 2.47017 -0 0 -2 0.015 0 0 0 0.0353429 
443 1 -0.0906469 0.387283 2.4765 -0 0 -2 0.015 0 0 0 0.0353429 
349 1 -0.116564 0.417399 2.48379 -0 0 -2 0.025 0 0 0 0.163625 
351 1 -0.0409452 0.415267 2.48639 -0 0 -2 0.015 0 0 0 0.0353429 
340 1 -0.149237 0.461517 2.46989 -0 0 -2 0.025 0 0 0 0.163625 
390 1 -0.0988461 0.19568 2.49864 -0 0 -2 0.015 0 0 0 0.0353429 
448 1 -0.0329565 0.20149 2.51132 -0 0 -2 0.015 0 0 0 0.0353429 
347 1 -0.0548177 0.23798 2.51465 -0 0 -2 0.025 0 0 0 0.163625 
362 1 -0.0154426 0.229504 2.52742 -0 0 -2 0.015 0 0 0 0.0353429 
378 1 -0.121409 0.285313 2.51855 -0 0 -2 0.015 0 0 0 0.0353429 
312 1 -0.134707 0.344673 2.5192 -0 0 -2 0.025 0 0 0 0.163625 
359 1 -0.107325 0.388274 2.52351 -0 0 -2 0.015 0 0 0 0.0353429 
303 1 -0.0551599 0.406314 2.52767 -0 0 -2 0.025 0 0 0 0.163625 
417 1 -0.0160313 0.444009 2.51919 -0 0 -2 0.015 0 0 0 0.0353429 
346 1 -0.149998 0.46436 2.52409 -0 0 -2 0.025 0 0 0 0.163625 
419 1 -0.111609 0.178994 2.52911 -0 0 -2 0.015 0 0 0 0.0353429 
421 1 -0.0930175 0.256927 2.53748 -0 0 -2 0.015 0 0 0 0.0353429 
365 1 -0.146907 0.425762 2.54202 -0 0 -2 0.015 0 0 0 0.0353429 
334 1 -0.103439 0.440728 2.5339 -0 0 -2 0.025 0 0 0 0.163625 
309 1 -0.144284 0.205271 2.57806 -0 0 -2 0.025 0 0 0 0.163625 
320 1 -0.0648735 0.208579 2.5684 -0 0 -2 0.025 0 0 0 0.163625 
430 1 -0.123083 0.250988 2.58462 -0 0 -2 0.015 0 0 0 0.0353429 
403 1 -0.0833248 0.256507 2.58657 -0 0 -2 0.015 0 0 0 0.0353429 
325 1 -0.117824 0.294875 2.55962 -0 0 -2 0.025 0 0 0 0.163625 
372 1 -0.0702168 0.391047 2.57178 -0 0 -2 0.015 0 0 0 0.0353429 
387 1 -0.0901615 0.367162 2.58018 -0 0 -2 0.015 0 0 0 0.0353429 
447 1 -0.122284 0.473304 2.56895 -0 0 -2 0.015 0 0 0 0.0353429 
338 1 -0.0583644 0.458496 2.57925 -0 0 -2 0.025 0 0 0 0.163625 
316 1 -0.0983119 0.181261 2.61841 -0 0 -2 0.025 0 0 0 0.163625 
379 1 -0.0327871 0.203074 2.59603 -0 0 -2 0.015 0 0 0 0.0353429 
357 1 -0.0584785 0.247404 2.61425 -0 0 -2 0.015 0 0 0 0.0353429 
301 1 -0.0884221 0.421264 2.61936 -0 0 -2 0.025 0 0 0 0.163625 
393 1 -0.015571 0.425619 2.59366 -0 0 -2 0.015 0 0 0 0.0353429 
329 1 -0.123479 0.457221 2.61685 -0 0 -2 0.025 0 0 0 0.163625 
364 1 -0.0453235 0.209912 2.62659 -0 0 -2 0.015 0 0 0 0.0353429 
321 1 -0.126579 0.250186 2.62726 -0 0 -2 0.025 0 0 0 0.163625 
410 1 -0.145474 0.298701 2.63035 -0 0 -2 0.015 0 0 0 0.0353429 
333 1 -0.0978849 0.312107 2.62792 -0 0 -2 0.025 0 0 0 0.163625 
380 1 -0.127355 0.355901 2.62331 -0 0 -2 0.015 0 0 0 0.0353429 
337 1 -0.142368 0.393123 2.63788 -0 0 -2 0.025 0 0 0 0.163625 
428 1 -0.0387226 0.430102 2.62262 -0 0 -2 0.015 0 0 0 0.0353429 
450 1 -0.0322061 0.474788 2.62345 -0 0 -2 0.015 0 0 0 0.0353429 
425 1 -0.074083 0.175677 2.67545 -0 0 -2 0.015 0 0 0 0.0353429 
332 1 -0.0814262 0.231721 2.66518 -0 0 -2 0.025 0 0 0 0.163625 
400 1 -0.135353 0.274705 2.66782 -0 0 -2 0.015 0 0 0 0.0353429 
366 1 -0.144217 0.391047 2.67891 -0 0 -2 0.015 0 0 0 0.0353429 
339 1 -0.0802774 0.437645 2.67507 -0 0 -2 0.025 0 0 0 0.163625 
305 1 -0.0452536 0.474362 2.67545 -0 0 -2 0.025 0 0 0 0.163625 
404 1 -0.119976 0.192749 2.69139 -0 0 -2 0.015 0 0 0 0.0353429 
311 1 -0.0354402 0.189328 2.68316 -0 0 -2 0.025 0 0 0 0.163625 
345 1 -0.128178 0.236209 2.68886 -0 0 -2 0.025 0 0 0 0.163625 
435 1 -0.0960728 0.272801 2.69172 -0 0 -2 0.015 0 0 0 0.0353429 
317 1 -0.129905 0.313645 2.68065 -0 0 -2 0.025 0 0 0 0.163625 
405 1 -0.038992 0.42438 2.68304 -0 0 -2 0.015 0 0 0 0.0353429 
444 1 -0.0159467 0.465681 2.7036 -0 0 -2 0.015 0 0 0 0.0353429 
289 1 0.0989702 0.245627 0.782972 0.0203384 -0.134604 -5.82175 0.015 0 0 -0.346714 0.0353429 
284 1 0.0699872 0.0108455 0.898302 -0.0310215 -0.613333 -5.51647 0.015 0 0 -0.346714 0.0353429 
203 1 0.0667127 0.00323277 0.934152 0 -0.5 -5.39725 0.015 0 0 -0.346714 0.0353429 
206 1 0.0994395 0.0407332 0.932889 0.057048 -0.582454 -5.44093 0.015 0 0 -0.346714 0.0353429 
237 1 0.12896 0.0684715 0.955931 0.0724848 -0.475593 -5.34593 0.015 0 0 -0.346714 0.0353429 
199 1 0.0898823 0.156617 0.930071 -0.00278668 -0.321029 -5.49341 0.025 0 0 -1.60516 0.163625 
214 1 0.144386 0.189733 0.944165 0 -0.5 -5.37901 0.015 0 0 -0.346714 0.0353429 
213 1 0.0350777 0.24257 0.9343 0 -0.5 -5.39696 0.015 0 0 -0.346714 0.0353429 
226 1 0.110692 0.251304 0.955024 0 -0.5 -5.35919 0.015 0 0 -0.346714 0.0353429 
272 1 0.0168276 0.277548 0.929347 0 -0.5 -5.40598 0.015 0 0 -0.346714 0.0353429 
241 1 0.0849537 0.273018 0.948955 0 -0.5 -5.37027 0.015 0 0 -0.346714 0.0353429 
259 1 0.149131 0.0438265 0.960906 0 -0.5 -5.3484 0.015 0 0 -0.346714 0.0353429 
263 1 0.025742 0.0644937 0.973384 0 -0.5 -5.32544 0.015 0 0 -0.346714 0.0353429 
171 1 0.0955264 0.205107 0.960212 0 -0.5 -5.34967 0.025 0 0 -1.60516 0.163625 
220 1 0.0177863 0.0196955 1.00287 -0.0669262 -0.554313 -5.26323 0.015 0 0 -0.346714 0.0353429 
116 1 0.0214351 0.163733 0.996018 0.36535 -0.287166 -5.38168 0.015 0 0 -0.346714 0.0353429 
177 1 0.158932 0.175702 1.00199 0.112606 -0.398162 -5.27824 0.025 0 0 -1.60516 0.163625 
290 1 0.150101 0.234023 1.04412 0.0439512 -0.299137 -5.15188 0.015 0 0 -0.346714 0.0353429 
166 1 0.0609489 0.307253 1.04518 0 -0.5 -5.19154 0.025 0 0 -1.60516 0.163625 
184 1 0.11251 0.305841 1.03888 0 -0.5 -5.20341 0.025 0 0 -1.60516 0.163625 
270 1 0.0946744 0.235669 1.07609 0 -0.5 -5.13277 0.015 0 0 -0.346714 0.0353429 
249 1 0.0491797 0.243421 1.06255 0 -0.5 -5.15857 0.015 0 0 -0.346714 0.0353429 
216 1 0.0901054 0.0394049 1.10391 0.0481324 -0.610657 -5.05561 0.015 0 0 -0.346714 0.0353429 
222 1 0.123753 0.0456614 1.09644 0 -0.5 -5.09373 0.015 0 0 -0.346714 0.0353429 
294 1 0.128315 0.268152 1.09216 0 -0.5 -5.10197 0.015 0 0 -0.346714 0.0353429 
180 1 0.038741 0.0612998 1.13556 -0.021889 -0.504465 -5.01102 0.025 0 0 -1.60516 0.163625 
253 1 0.123075 0.153069 1.13838 0 -0.5 -5.01231 0.015 0 0 -0.346714 0.0353429 
170 1 0.181223 0.231349 1.11936 0.161731 -0.381986 -5.06531 0.025 0 0 -1.60516 0.163625 
231 1 0.0350342 0.26562 1.13262 0 -0.5 -5.02359 0.015 0 0 -0.346714 0.0353429 
282 1 0.0209931 0.121556 1.16937 -0.2609 -0.673185 -4.92757 0.015 0 0 -0.346714 0.0353429 
169 1 0.0892107 0.274668 1.15523 0 -0.5 -4.97925 0.025 0 0 -1.60516 0.163625 
209 1 0.0969746 0.0412476 1.18428 0 -0.5 -4.92166 0.015 0 0 -0.346714 0.0353429 
278 1 0.113612 0.175965 1.21859 0 -0.5 -4.8528 0.015 0 0 -0.346714 0.0353429 
296 1 0.146983 0.157001 1.22043 0 -0.5 -4.84907 0.015 0 0 -0.346714 0.0353429 
257 1 0.139837 0.288641 1.21908 0 -0.5 -4.85182 0.015 0 0 -0.346714 0.0353429 
168 1 0.0261487 0.0781037 1.25934 0 -0.5 -4.76971 0.025 0 0 -1.60516 0.163625 
269 1 0.141487 0.0735043 1.25647 0 -0.5 -4.77559 0.015 0 0 -0.346714 0.0353429 
162 1 0.0478022 0.278457 1.25136 0 -0.5 -4.78609 0.025 0 0 -1.60516 0.163625 
235 1 0.134937 0.0443847 1.27142 0 -0.5 -4.74479 0.015 0 0 -0.346714 0.0353429 
185 1 0.0936576 0.122666 1.2783 0 -0.5 -4.73056 0.025 0 0 -1.60516 0.163625 
217 1 0.133752 0.123691 1.2699 0 -0.5 -4.74793 0.015 0 0 -0.346714 0.0353429 
182 1 0.114565 0.233779 1.26611 0 -0.5 -4.75578 0.025 0 0 -1.60516 0.163625 
286 1 0.147755 0.32287 1.26886 0 -0.5 -4.75009 0.015 0 0 -0.346714 0.0353429 
176 1 0.0399362 0.330472 1.26999 0 -0.5 -4.74773 0.025 0 0 -1.60516 0.163625 
153 1 0.0895866 0.0387598 1.30313 0 -0.5 -4.67877 0.025 0 0 -1.60516 0.163625 
211 1 0.0694768 0.0969716 1.32274 0 -0.5 -4.63747 0.015 0 0 -0.346714 0.0353429 
251 1 0.126174 0.191559 1.316 0 -0.5 -4.65169 0.015 0 0 -0.346714 0.0353429 
291 1 0.140432 0.267523 1.33757 0 -0.5 -4.60598 0.015 0 0 -0.346714 0.0353429 
159 1 0.087245 0.326208 1.33891 0 -0.5 -4.60313 0.025 0 0 -1.60516 0.163625 
300 1 0.149285 0.32024 1.35177 0 -0.5 -4.57566 0.015 0 0 -0.346714 0.0353429 
204 1 0.134881 0.0852481 1.36189 0 -0.5 -4.55389 0.015 0 0 -0.346714 0.0353429 
161 1 0.135356 0.14285 1.36085 0 -0.5 -4.55614 0.025 0 0 -1.60516 0.163625 
230 1 0.118982 0.183372 1.37846 0 -0.5 -4.51808 0.015 0 0 -0.346714 0.0353429 
228 1 0.0279693 0.292593 1.36886 0 -0.5 -4.53888 0.015 0 0 -0.346714 0.0353429 
175 1 0.0941494 0.0780588 1.39797 0 -0.5 -4.4755 0.025 0 0 -1.60516 0.163625 
256 1 0.0868225 0.310057 1.41827 0 -0.5 -4.43077 0.015 0 0 -0.346714 0.0353429 
250 1 0.138716 0.324193 1.41561 0 -0.5 -4.43666 0.015 0 0 -0.346714 0.0353429 
299 1 0.0153001 0.101541 1.43973 0 -0.5 -4.383 0.015 0 0 -0.346714 0.0353429 
293 1 0.0548164 0.117145 1.43175 0 -0.5 -4.40085 0.015 0 0 -0.346714 0.0353429 
192 1 0.134392 0.241049 1.42208 0 -0.5 -4.42233 0.025 0 0 -1.60516 0.163625 
285 1 0.0870748 0.278259 1.42376 0 -0.5 -4.41861 0.015 0 0 -0.346714 0.0353429 
275 1 0.0211058 0.324962 1.43797 0 -0.5 -4.38692 0.015 0 0 -0.346714 0.0353429 
246 1 0.0494565 0.34501 1.42451 0 -0.5 -4.41694 0.015 0 0 -0.346714 0.0353429 
240 1 0.0956629 0.34188 1.42689 0 -0.5 -4.41164 0.015 0 0 -0.346714 0.0353429 
202 1 0.126943 0.0761189 1.46909 0 -0.5 -4.31678 0.015 0 0 -0.346714 0.0353429 
245 1 0.0868358 0.101715 1.48002 0 -0.5 -4.29186 0.015 0 0 -0.346714 0.0353429 
200 1 0.112803 0.134149 1.45624 0 -0.5 -4.34591 0.025 0 0 -1.60516 0.163625 
255 1 0.0340792 0.292865 1.46252 0 -0.5 -4.33169 0.015 0 0 -0.346714 0.0353429 
252 1 0.131256 0.301424 1.46252 0 -0.5 -4.33169 0.015 0 0 -0.346714 0.0353429 
189 1 0.0509787 0.075512 1.50434 0 -0.5 -4.23594 0.025 0 0 -1.60516 0.163625 
247 1 0.0532922 0.129565 1.49771 0 -0.5 -4.25125 0.015 0 0 -0.346714 0.0353429 
287 1 0.130384 0.0663502 1.5337 0 -0.5 -4.16737 0.015 0 0 -0.346714 0.0353429 
154 1 0.116388 0.221122 1.5167 0 -0.5 -4.2072 0.025 0 0 -1.60516 0.163625 
190 1 0.11779 0.334732 1.52639 0 -0.5 -4.18454 0.025 0 0 -1.60516 0.163625 
288 1 0.0326968 0.111446 1.54418 0 -0.5 -4.14265 0.015 0 0 -0.346714 0.0353429 
165 1 0.148355 0.164191 1.57233 0 -0.5 -4.07545 0.025 0 0 -1.60516 0.163625 
295 1 0.103955 0.280828 1.54735 0 -0.5 -4.1351 0.015 0 0 -0.346714 0.0353429 
156 1 0.0411221 0.329187 1.54989 0 -0.5 -4.12911 0.025 0 0 -1.60516 0.163625 
210 1 0.0872868 0.0733864 1.57602 0 -0.5 -4.06653 0.015 0 0 -0.346714 0.0353429 
181 1 0.070397 0.112344 1.58382 0 -0.5 -4.04769 0.025 0 0 -1.60516 0.163625 
233 1 0.0406697 0.0912917 1.62644 0 -0.5 -3.94302 0.015 0 0 -0.346714 0.0353429 
260 1 0.0198171 0.12112 1.61298 0 -0.5 -3.97637 0.015 0 0 -0.346714 0.0353429 
152 1 0.089118 0.179144 1.6059 0 -0.5 -3.99383 0.025 0 0 -1.60516 0.163625 
279 1 0.11959 0.239322 1.61514 0 -0.5 -3.97107 0.015 0 0 -0.346714 0.0353429 
262 1 0.0888361 0.273008 1.62143 0 -0.5 -3.95548 0.015 0 0 -0.346714 0.0353429 
234 1 0.0945525 0.322871 1.61624 0 -0.5 -3.96833 0.015 0 0 -0.346714 0.0353429 
208 1 0.0680799 0.359251 1.62282 0 -0.5 -3.95204 0.015 0 0 -0.346714 0.0353429 
207 1 0.128901 0.290384 1.63977 0 -0.5 -3.90976 0.015 0 0 -0.346714 0.0353429 
194 1 0.131621 0.350036 1.63683 0 -0.5 -3.91712 0.025 0 0 -1.60516 0.163625 
223 1 0.0343911 0.372571 1.65513 0 -0.5 -3.87101 0.015 0 0 -0.346714 0.0353429 
212 1 0.0737637 0.104983 1.68302 0 -0.5 -3.79969 0.015 0 0 -0.346714 0.0353429 
236 1 0.111584 0.118462 1.68305 0 -0.5 -3.7996 0.015 0 0 -0.346714 0.0353429 
191 1 0.0609008 0.319599 1.6867 0 -0.5 -3.79018 0.025 0 0 -1.60516 0.163625 
178 1 0.0370442 0.089146 1.71567 0 -0.5 -3.71444 0.025 0 0 -1.60516 0.163625 
224 1 0.132465 0.147362 1.7158 0 -0.5 -3.71405 0.015 0 0 -0.346714 0.0353429 