ITEM: TIMESTEP
33600
ITEM: NUMBER OF ATOMS
600
ITEM: BOX BOUNDS mm mm mm
-1 1
-1 1
-0.05 2.85
ITEM: ATOMS id type x y z vx vy vz radius fx fy fz mass 
68 1 -0.0997213 0.0772714 1.03643 0 -0.5 -5.20802 0.015 0 0 -0.346714 0.0353429 
45 1 -0.0943793 0.0282376 1.06328 0 -0.5 -5.1572 0.025 0 0 -1.60516 0.163625 
122 1 -0.0702866 0.0852751 1.06366 0.00811842 -0.517403 -5.15558 0.015 0 0 -0.346714 0.0353429 
137 1 -0.0882993 0.124033 1.04911 -0.00924354 -0.479856 -5.18516 0.015 0 0 -0.346714 0.0353429 
33 1 -0.129286 0.268605 1.05754 0 -0.5 -5.16809 0.025 0 0 -1.60516 0.163625 
119 1 -0.0370509 0.0171886 1.09094 0 -0.5 -5.10433 0.015 0 0 -0.346714 0.0353429 
43 1 -0.116198 0.179785 1.08311 0 -0.5 -5.11933 0.025 0 0 -1.60516 0.163625 
78 1 -0.0422369 0.275955 1.09822 0 -0.5 -5.0903 0.015 0 0 -0.346714 0.0353429 
111 1 -0.0487783 0.3121 1.08367 0 -0.5 -5.11826 0.015 0 0 -0.346714 0.0353429 
75 1 -0.0493142 0.0676721 1.10716 0 -0.5 -5.07303 0.015 0 0 -0.346714 0.0353429 
89 1 -0.129145 0.0963079 1.11315 0 -0.5 -5.06146 0.015 0 0 -0.346714 0.0353429 
59 1 -0.0865612 0.224868 1.12637 0 -0.5 -5.03575 0.015 0 0 -0.346714 0.0353429 
92 1 -0.131017 0.319327 1.14035 0 -0.5 -5.00848 0.015 0 0 -0.346714 0.0353429 
26 1 -0.0722714 0.140364 1.18272 0.14857 -0.341553 -4.97753 0.025 0 0 -1.60516 0.163625 
98 1 -0.147127 0.168442 1.19175 0 -0.5 -4.90675 0.015 0 0 -0.346714 0.0353429 
151 1 -0.0686397 0.250527 1.19122 0 -0.5 -4.90783 0.015 0 0 -0.346714 0.0353429 
8 1 -0.104188 0.035463 1.20719 0 -0.5 -4.87575 0.025 0 0 -1.60516 0.163625 
3 1 -0.141317 0.233388 1.21427 0 -0.5 -4.86153 0.025 0 0 -1.60516 0.163625 
100 1 -0.0681017 0.103921 1.24394 0 -0.5 -4.80129 0.015 0 0 -0.346714 0.0353429 
140 1 -0.125739 0.145556 1.23956 0 -0.5 -4.81022 0.015 0 0 -0.346714 0.0353429 
72 1 -0.105673 0.270796 1.22643 0 -0.5 -4.8369 0.015 0 0 -0.346714 0.0353429 
40 1 -0.104474 0.322198 1.24056 0 -0.5 -4.80816 0.025 0 0 -1.60516 0.163625 
118 1 -0.0372647 0.305681 1.24854 0 -0.5 -4.79188 0.015 0 0 -0.346714 0.0353429 
117 1 -0.0596227 0.0470208 1.26201 0 -0.5 -4.76421 0.015 0 0 -0.346714 0.0353429 
51 1 -0.155995 0.0632872 1.28335 -0.0265052 -0.519812 -4.71231 0.025 0 0 -1.60516 0.163625 
148 1 -0.152719 0.172347 1.28987 -0.171679 -0.397353 -4.81355 0.015 0 0 -0.346714 0.0353429 
90 1 -0.146535 0.323667 1.31294 0 -0.5 -4.65817 0.015 0 0 -0.346714 0.0353429 
60 1 -0.0770515 0.0559276 1.33009 0 -0.5 -4.62187 0.015 0 0 -0.346714 0.0353429 
11 1 -0.10164 0.211485 1.32753 0.022917 -0.457889 -4.65103 0.025 0 0 -1.60516 0.163625 
50 1 -0.130982 0.280355 1.33135 0 -0.5 -4.61922 0.025 0 0 -1.60516 0.163625 
105 1 -0.162462 0.195059 1.36438 -0.321192 -0.368687 -4.53474 0.015 0 0 -0.346714 0.0353429 
74 1 -0.0790012 0.267893 1.35949 0 -0.5 -4.55909 0.015 0 0 -0.346714 0.0353429 
76 1 -0.0202065 0.29607 1.37226 0 -0.5 -4.53152 0.015 0 0 -0.346714 0.0353429 
44 1 -0.125916 0.0475965 1.38075 0 -0.5 -4.51308 0.025 0 0 -1.60516 0.163625 
36 1 -0.103411 0.0943125 1.39792 0 -0.5 -4.4756 0.025 0 0 -1.60516 0.163625 
29 1 -0.0788351 0.310182 1.39312 0 -0.5 -4.4861 0.025 0 0 -1.60516 0.163625 
54 1 -0.14893 0.132065 1.41316 -0.0956439 -0.529683 -4.4243 0.015 0 0 -0.346714 0.0353429 
114 1 -0.0719883 0.124424 1.42617 -0.00040144 -0.499666 -4.41339 0.015 0 0 -0.346714 0.0353429 
146 1 -0.109965 0.0609163 1.46776 0 -0.5 -4.31982 0.015 0 0 -0.346714 0.0353429 
73 1 -0.0639552 0.0737667 1.45011 0 -0.5 -4.35975 0.015 0 0 -0.346714 0.0353429 
2 1 -0.110349 0.221071 1.45462 0 -0.5 -4.34954 0.025 0 0 -1.60516 0.163625 
12 1 -0.0363281 0.330336 1.46656 0 -0.5 -4.32257 0.025 0 0 -1.60516 0.163625 
113 1 -0.118506 0.345198 1.44507 0 -0.5 -4.37103 0.015 0 0 -0.346714 0.0353429 
57 1 -0.120673 0.177061 1.48906 0 -0.5 -4.27116 0.015 0 0 -0.346714 0.0353429 
88 1 -0.0666498 0.287919 1.48047 0 -0.5 -4.29088 0.015 0 0 -0.346714 0.0353429 
99 1 -0.146283 0.125517 1.49908 0 -0.5 -4.24811 0.015 0 0 -0.346714 0.0353429 
83 1 -0.108229 0.155146 1.52661 0 -0.5 -4.18405 0.015 0 0 -0.346714 0.0353429 
10 1 -0.0824602 0.268842 1.52262 0.0800593 -0.36273 -4.29499 0.025 0 0 -1.60516 0.163625 
34 1 -0.138562 0.294511 1.52213 0 -0.5 -4.19455 0.025 0 0 -1.60516 0.163625 
67 1 -0.0183057 0.0683887 1.55317 0 -0.5 -4.12127 0.015 0 0 -0.346714 0.0353429 
66 1 -0.0281121 0.112823 1.5327 0 -0.5 -4.16973 0.015 0 0 -0.346714 0.0353429 
19 1 -0.0715757 0.135252 1.52957 0 -0.5 -4.17708 0.025 0 0 -1.60516 0.163625 
81 1 -0.051385 0.295999 1.5357 0 -0.5 -4.16266 0.015 0 0 -0.346714 0.0353429 
71 1 -0.145263 0.338198 1.53925 0 -0.5 -4.15433 0.015 0 0 -0.346714 0.0353429 
24 1 -0.138394 0.0954519 1.56317 0 -0.5 -4.09743 0.025 0 0 -1.60516 0.163625 
133 1 -0.127566 0.211944 1.5702 0 -0.5 -4.08055 0.015 0 0 -0.346714 0.0353429 
95 1 -0.10482 0.299312 1.57301 0 -0.5 -4.07378 0.015 0 0 -0.346714 0.0353429 
39 1 -0.0696793 0.34901 1.5731 0 -0.5 -4.07359 0.025 0 0 -1.60516 0.163625 
103 1 -0.135939 0.139722 1.59278 0 -0.5 -4.02591 0.015 0 0 -0.346714 0.0353429 
70 1 -0.107191 0.121924 1.60253 0 -0.5 -4.00207 0.015 0 0 -0.346714 0.0353429 
97 1 -0.0338223 0.125144 1.61533 0 -0.5 -3.97058 0.015 0 0 -0.346714 0.0353429 
115 1 -0.076478 0.160431 1.61565 0 -0.5 -3.9698 0.015 0 0 -0.346714 0.0353429 
85 1 -0.13789 0.282015 1.61755 0 -0.5 -3.96509 0.015 0 0 -0.346714 0.0353429 
143 1 -0.11631 0.357682 1.59973 0 -0.5 -4.00894 0.015 0 0 -0.346714 0.0353429 
28 1 -0.0685748 0.0980701 1.62246 0 -0.5 -3.95293 0.025 0 0 -1.60516 0.163625 
96 1 -0.131998 0.125081 1.65094 0 -0.5 -3.88161 0.015 0 0 -0.346714 0.0353429 
126 1 -0.116903 0.214839 1.6356 -0.0288748 -0.539424 -3.88843 0.015 0 0 -0.346714 0.0353429 
134 1 -0.137197 0.322367 1.63022 0 -0.5 -3.9336 0.015 0 0 -0.346714 0.0353429 
77 1 -0.0297287 0.350749 1.63576 0 -0.5 -3.91977 0.015 0 0 -0.346714 0.0353429 
120 1 -0.148569 0.371261 1.63734 0 -0.5 -3.91584 0.015 0 0 -0.346714 0.0353429 
38 1 -0.121616 0.166188 1.66674 0 -0.5 -3.84148 0.025 0 0 -1.60516 0.163625 
150 1 -0.100106 0.137207 1.7128 0 -0.5 -3.722 0.015 0 0 -0.346714 0.0353429 
130 1 -0.0642546 0.160441 1.69591 0 -0.5 -3.76624 0.015 0 0 -0.346714 0.0353429 
23 1 -0.134189 0.302519 1.69523 0 -0.5 -3.76801 0.025 0 0 -1.60516 0.163625 
31 1 -0.140814 0.102877 1.72362 0 -0.5 -3.69335 0.025 0 0 -1.60516 0.163625 
110 1 -0.0868918 0.0924165 1.74302 0 -0.5 -3.64146 0.015 0 0 -0.346714 0.0353429 
18 1 -0.106015 0.367686 1.71372 0 -0.5 -3.71955 0.025 0 0 -1.60516 0.163625 
4 1 -0.0330873 0.380857 1.71314 0 -0.5 -3.72112 0.025 0 0 -1.60516 0.163625 
93 1 -0.0244706 0.104158 1.75278 0 -0.5 -3.61507 0.015 0 0 -0.346714 0.0353429 
17 1 -0.134634 0.218027 1.75769 0 -0.5 -3.60173 0.025 0 0 -1.60516 0.163625 
136 1 -0.0832352 0.311008 1.75531 0 -0.5 -3.6082 0.015 0 0 -0.346714 0.0353429 
30 1 -0.0481876 0.338857 1.76097 0 -0.5 -3.5928 0.025 0 0 -1.60516 0.163625 
109 1 -0.0676248 0.38608 1.7602 0 -0.5 -3.59486 0.015 0 0 -0.346714 0.0353429 
106 1 -0.117091 0.410038 1.75703 -0.0998962 -0.230395 -3.80209 0.015 0 0 -0.346714 0.0353429 
108 1 -0.089121 0.124824 1.79027 0 -0.5 -3.51187 0.015 0 0 -0.346714 0.0353429 
102 1 -0.11709 0.124899 1.83165 0 -0.5 -3.39434 0.015 0 0 -0.346714 0.0353429 
69 1 -0.020474 0.145083 1.8058 0 -0.5 -3.46821 0.015 0 0 -0.346714 0.0353429 
139 1 -0.104092 0.182572 1.83153 0 -0.5 -3.39464 0.015 0 0 -0.346714 0.0353429 
144 1 -0.0691235 0.185474 1.8309 0 -0.5 -3.3965 0.015 0 0 -0.346714 0.0353429 
22 1 -0.102489 0.250306 1.82807 0 -0.5 -3.40464 0.025 0 0 -1.60516 0.163625 
35 1 -0.146938 0.318792 1.8104 0 -0.5 -3.45517 0.025 0 0 -1.60516 0.163625 
1 1 -0.144985 0.445818 1.81932 -0.021394 -0.0706631 -3.66705 0.025 0 0 -1.60516 0.163625 
14 1 -0.0571303 0.116975 1.83898 0 -0.5 -3.37306 0.025 0 0 -1.60516 0.163625 
141 1 -0.136875 0.198264 1.84896 0 -0.5 -3.34392 0.015 0 0 -0.346714 0.0353429 
55 1 -0.0959981 0.356395 1.84217 -7.52477e-06 -0.49998 -3.36377 0.015 0 0 -0.346714 0.0353429 
21 1 -0.0470047 0.4015 1.85874 0 -0.5 -3.31508 0.025 0 0 -1.60516 0.163625 
107 1 -0.141609 0.113948 1.88612 0 -0.5 -3.23307 0.015 0 0 -0.346714 0.0353429 
149 1 -0.087562 0.228346 1.87452 0.199959 -0.45766 -3.60181 0.015 0 0 -0.346714 0.0353429 
94 1 -0.157764 0.263296 1.88365 -0.356499 -0.190573 -3.35131 0.015 0 0 -0.346714 0.0353429 
87 1 -0.113676 0.319588 1.86861 0 -0.5 -3.28575 0.015 0 0 -0.346714 0.0353429 
147 1 -0.100309 0.389431 1.89654 0 -0.5 -3.20128 0.015 0 0 -0.346714 0.0353429 
142 1 -0.0724928 0.138748 1.91736 0 -0.5 -3.13683 0.015 0 0 -0.346714 0.0353429 
112 1 -0.073338 0.197279 1.90327 0 -0.5 -3.18058 0.015 0 0 -0.346714 0.0353429 
84 1 -0.116406 0.277786 1.90102 0 -0.5 -3.18755 0.015 0 0 -0.346714 0.0353429 
145 1 -0.0934491 0.354113 1.91875 0 -0.5 -3.13252 0.015 0 0 -0.346714 0.0353429 
47 1 -0.140465 0.36145 1.91742 0 -0.5 -3.13664 0.025 0 0 -1.60516 0.163625 
32 1 -0.156077 0.128234 1.94826 -0.0613285 -0.540948 -3.03307 0.025 0 0 -1.60516 0.163625 
6 1 -0.0986998 0.167643 1.93369 0.101461 -0.428163 -3.09601 0.025 0 0 -1.60516 0.163625 
135 1 -0.140472 0.206893 1.94753 0 -0.5 -3.04099 0.015 0 0 -0.346714 0.0353429 
15 1 -0.0884319 0.262134 1.9444 0.0430154 -0.390763 -2.98881 0.025 0 0 -1.60516 0.163625 
80 1 -0.102893 0.324893 1.92897 0 -0.5 -3.10034 0.015 0 0 -0.346714 0.0353429 
62 1 -0.0849655 0.414406 1.94736 0 -0.5 -3.04158 0.015 0 0 -0.346714 0.0353429 
138 1 -0.0317395 0.141316 1.95961 0 -0.5 -3.00175 0.015 0 0 -0.346714 0.0353429 
128 1 -0.145291 0.291677 1.96067 0 -0.5 -2.99831 0.015 0 0 -0.346714 0.0353429 
121 1 -0.0679495 0.396078 1.97333 0 -0.5 -2.95662 0.015 0 0 -0.346714 0.0353429 
61 1 -0.0231802 0.134935 2.01235 0 -0.5 -2.82419 0.015 0 0 -0.346714 0.0353429 
52 1 -0.100497 0.15049 2.01741 0 -0.5 -2.80653 0.015 0 0 -0.346714 0.0353429 
129 1 -0.0553418 0.165199 1.99631 0 -0.5 -2.87932 0.015 0 0 -0.346714 0.0353429 
79 1 -0.0179342 0.168984 2.0124 0 -0.5 -2.82399 0.015 0 0 -0.346714 0.0353429 
13 1 -0.146779 0.247821 2.00538 0 -0.5 -2.84832 0.025 0 0 -1.60516 0.163625 
101 1 -0.102489 0.257824 2.00286 0 -0.5 -2.85695 0.015 0 0 -0.346714 0.0353429 
91 1 -0.124131 0.354132 2.01268 0 -0.5 -2.82301 0.015 0 0 -0.346714 0.0353429 
37 1 -0.0716655 0.360665 2.00251 0 -0.5 -2.85813 0.025 0 0 -1.60516 0.163625 
46 1 -0.032303 0.422569 2.00574 0 -0.5 -2.84704 0.025 0 0 -1.60516 0.163625 
5 1 -0.137704 0.178412 2.02396 0 -0.5 -2.78357 0.025 0 0 -1.60516 0.163625 
7 1 -0.0712578 0.217449 2.02599 0 -0.5 -2.77641 0.025 0 0 -1.60516 0.163625 
20 1 -0.124339 0.305888 2.02193 0 -0.5 -2.79074 0.025 0 0 -1.60516 0.163625 
86 1 -0.142939 0.347059 2.04718 0 -0.5 -2.70048 0.015 0 0 -0.346714 0.0353429 
9 1 -0.0320364 0.381159 2.04923 0 -0.5 -2.69303 0.025 0 0 -1.60516 0.163625 
65 1 -0.147981 0.155097 2.06565 0 -0.5 -2.6325 0.015 0 0 -0.346714 0.0353429 
58 1 -0.0969698 0.251891 2.05753 0 -0.5 -2.66262 0.015 0 0 -0.346714 0.0353429 
124 1 -0.136447 0.377377 2.05746 0 -0.5 -2.66291 0.015 0 0 -0.346714 0.0353429 
41 1 -0.107908 0.432758 2.06413 0 -0.5 -2.63819 0.025 0 0 -1.60516 0.163625 
49 1 -0.0613084 0.16571 2.10938 0 -0.5 -2.46416 0.025 0 0 -1.60516 0.163625 
132 1 -0.0234712 0.188168 2.09821 0 -0.5 -2.50831 0.015 0 0 -0.346714 0.0353429 
48 1 -0.144727 0.245852 2.09774 0 -0.5 -2.51007 0.025 0 0 -1.60516 0.163625 
53 1 -0.106432 0.29034 2.09896 0 -0.5 -2.50536 0.015 0 0 -0.346714 0.0353429 
104 1 -0.138444 0.319217 2.08745 0 -0.5 -2.55 0.015 0 0 -0.346714 0.0353429 
16 1 -0.129915 0.389079 2.11114 0 -0.5 -2.4572 0.025 0 0 -1.60516 0.163625 
27 1 -0.0637137 0.415885 2.1115 0 -0.5 -2.45572 0.025 0 0 -1.60516 0.163625 
131 1 -0.025873 0.42004 2.08191 0 -0.5 -2.57119 0.015 0 0 -0.346714 0.0353429 
25 1 -0.104447 0.199785 2.13572 0 -0.5 -2.35703 0.025 0 0 -1.60516 0.163625 
127 1 -0.0304133 0.211621 2.12953 0 -0.5 -2.38264 0.015 0 0 -0.346714 0.0353429 
82 1 -0.0851821 0.379627 2.11469 0 -0.5 -2.44297 0.015 0 0 -0.346714 0.0353429 
63 1 -0.147823 0.445713 2.11988 0 -0.5 -2.42198 0.015 0 0 -0.346714 0.0353429 
56 1 -0.11556 0.443119 2.12945 0 -0.5 -2.38293 0.015 0 0 -0.346714 0.0353429 
392 1 -0.0201822 0.163377 2.16175 0 -0.5 -2.24608 0.015 0 0 -0.346714 0.0353429 
361 1 -0.0655065 0.191159 2.16044 0 -0.5 -2.25177 0.015 0 0 -0.346714 0.0353429 
375 1 -0.132504 0.228213 2.16537 0 -0.5 -2.23019 0.015 0 0 -0.346714 0.0353429 
42 1 -0.132916 0.292796 2.14352 0 -0.5 -2.32427 0.025 0 0 -1.60516 0.163625 
123 1 -0.11925 0.349492 2.14549 0 -0.5 -2.31593 0.015 0 0 -0.346714 0.0353429 
391 1 -0.0665259 0.39019 2.16115 0 -0.5 -2.24863 0.015 0 0 -0.346714 0.0353429 
64 1 -0.145219 0.413177 2.15292 0 -0.5 -2.28424 0.015 0 0 -0.346714 0.0353429 
125 1 -0.0960051 0.405127 2.15392 0 -0.5 -2.28003 0.015 0 0 -0.346714 0.0353429 
449 1 -0.121601 0.16897 2.18703 0 -0.5 -2.13278 0.015 0 0 -0.346714 0.0353429 
348 1 -0.0435265 0.18351 2.19486 -0.0150753 -0.514502 -2.08863 0.025 0 0 -1.60516 0.163625 
429 1 -0.016199 0.211159 2.17691 0.187199 -0.301038 -2.28429 0.015 0 0 -0.346714 0.0353429 
353 1 -0.0778865 0.24451 2.17525 0 -0.5 -2.18624 0.015 0 0 -0.346714 0.0353429 
409 1 -0.1116 0.276279 2.19917 0 -0.5 -2.07617 0.015 0 0 -0.346714 0.0353429 
432 1 -0.110656 0.304023 2.18149 0 -0.5 -2.15809 0.015 0 0 -0.346714 0.0353429 
423 1 -0.035066 0.408352 2.18065 0 -0.5 -2.16191 0.015 0 0 -0.346714 0.0353429 
434 1 -0.110177 0.436235 2.19811 0 -0.5 -2.08118 0.015 0 0 -0.346714 0.0353429 
370 1 -0.0476722 0.462061 2.17525 0 -0.5 -2.18634 0.015 0 0 -0.346714 0.0353429 
368 1 -0.0426125 0.209553 2.23321 -0 0 -2 0.015 0 0 0 0.0353429 
414 1 -0.12165 0.343802 2.22544 -0 0 -2 0.015 0 0 0 0.0353429 
416 1 -0.148865 0.363772 2.23093 -0 0 -2 0.015 0 0 0 0.0353429 
304 1 -0.147639 0.402299 2.2108 0 -0.5 -2.02045 0.025 0 0 -1.60516 0.163625 
422 1 -0.0856494 0.426278 2.23242 -0 0 -2 0.015 0 0 0 0.0353429 
327 1 -0.047146 0.437376 2.2231 -0 0 -2 0.025 0 0 0 0.163625 
440 1 -0.074831 0.181528 2.25143 -0 0 -2 0.015 0 0 0 0.0353429 
307 1 -0.141488 0.200701 2.24547 -0 0 -2 0.025 0 0 0 0.163625 
328 1 -0.101567 0.23302 2.24038 -0 0 -2 0.025 0 0 0 0.163625 
388 1 -0.0545692 0.242431 2.26403 -0 0 -2 0.015 0 0 0 0.0353429 
323 1 -0.131477 0.311783 2.26314 -0 0 -2 0.025 0 0 0 0.163625 
342 1 -0.0942786 0.383532 2.2409 -0 0 -2 0.025 0 0 0 0.163625 
352 1 -0.144025 0.417624 2.25628 -0 0 -2 0.015 0 0 0 0.0353429 
330 1 -0.125578 0.473218 2.25825 -0 0 -2 0.025 0 0 0 0.163625 
441 1 -0.0895132 0.461297 2.24564 -0 0 -2 0.015 0 0 0 0.0353429 
331 1 -0.138106 0.176551 2.29214 -0 0 -2 0.025 0 0 0 0.163625 
418 1 -0.0554251 0.183195 2.28598 -0 0 -2 0.015 0 0 0 0.0353429 
395 1 -0.110093 0.233322 2.28921 -0 0 -2 0.015 0 0 0 0.0353429 
318 1 -0.126425 0.383688 2.28489 -0 0 -2 0.025 0 0 0 0.163625 
406 1 -0.0920408 0.414471 2.26779 -0 0 -2 0.015 0 0 0 0.0353429 
336 1 -0.025747 0.416073 2.28881 -0 0 -2 0.025 0 0 0 0.163625 
313 1 -0.0392615 0.218859 2.29834 -0 0 -2 0.025 0 0 0 0.163625 
315 1 -0.0970947 0.282811 2.30938 -0 0 -2 0.025 0 0 0 0.163625 
445 1 -0.0938501 0.351198 2.31679 -0 0 -2 0.015 0 0 0 0.0353429 
407 1 -0.0713596 0.410324 2.31008 -0 0 -2 0.015 0 0 0 0.0353429 
374 1 -0.133879 0.440362 2.29943 -0 0 -2 0.015 0 0 0 0.0353429 
310 1 -0.0919271 0.448743 2.30801 -0 0 -2 0.025 0 0 0 0.163625 
377 1 -0.128279 0.19547 2.32802 -0 0 -2 0.015 0 0 0 0.0353429 
302 1 -0.0567477 0.188796 2.34508 -0 0 -2 0.025 0 0 0 0.163625 
401 1 -0.0913429 0.220505 2.34411 -0 0 -2 0.015 0 0 0 0.0353429 
314 1 -0.136534 0.255606 2.34952 -0 0 -2 0.025 0 0 0 0.163625 
439 1 -0.132801 0.307992 2.34262 -0 0 -2 0.015 0 0 0 0.0353429 
344 1 -0.147144 0.347235 2.33584 -0 0 -2 0.025 0 0 0 0.163625 
386 1 -0.118095 0.41734 2.32608 -0 0 -2 0.015 0 0 0 0.0353429 
431 1 -0.13363 0.212461 2.36377 -0 0 -2 0.015 0 0 0 0.0353429 
355 1 -0.0483468 0.232484 2.36011 -0 0 -2 0.015 0 0 0 0.0353429 
446 1 -0.116317 0.366731 2.37459 -0 0 -2 0.015 0 0 0 0.0353429 
354 1 -0.0927402 0.400508 2.36297 -0 0 -2 0.015 0 0 0 0.0353429 
413 1 -0.0512121 0.403311 2.35702 -0 0 -2 0.015 0 0 0 0.0353429 
411 1 -0.0485728 0.448156 2.37861 -0 0 -2 0.015 0 0 0 0.0353429 
442 1 -0.149932 0.462501 2.35769 -0 0 -2 0.015 0 0 0 0.0353429 
408 1 -0.087028 0.469634 2.36223 -0 0 -2 0.015 0 0 0 0.0353429 
324 1 -0.0498553 0.178658 2.40719 -0 0 -2 0.025 0 0 0 0.163625 
350 1 -0.147794 0.212625 2.40209 -0 0 -2 0.025 0 0 0 0.163625 
399 1 -0.074527 0.226788 2.39604 -0 0 -2 0.015 0 0 0 0.0353429 
437 1 -0.0723044 0.254202 2.41114 -0 0 -2 0.015 0 0 0 0.0353429 
335 1 -0.126459 0.273678 2.40198 -0 0 -2 0.025 0 0 0 0.163625 
436 1 -0.0854574 0.281776 2.3957 -0 0 -2 0.015 0 0 0 0.0353429 
341 1 -0.148816 0.394703 2.39711 -0 0 -2 0.025 0 0 0 0.163625 
385 1 -0.0696212 0.401745 2.4055 -0 0 -2 0.015 0 0 0 0.0353429 
384 1 -0.142553 0.470858 2.40751 -0 0 -2 0.015 0 0 0 0.0353429 
382 1 -0.111765 0.470126 2.38826 -0 0 -2 0.015 0 0 0 0.0353429 
427 1 -0.116274 0.458291 2.416 -0 0 -2 0.015 0 0 0 0.0353429 
389 1 -0.0230912 0.468001 2.39771 -0 0 -2 0.015 0 0 0 0.0353429 
358 1 -0.127277 0.195217 2.43731 -0 0 -2 0.015 0 0 0 0.0353429 
367 1 -0.106717 0.230156 2.4297 -0 0 -2 0.015 0 0 0 0.0353429 
326 1 -0.145564 0.324649 2.43823 -0 0 -2 0.025 0 0 0 0.163625 
394 1 -0.145405 0.426519 2.42367 -0 0 -2 0.015 0 0 0 0.0353429 
424 1 -0.118548 0.427887 2.43849 -0 0 -2 0.015 0 0 0 0.0353429 
319 1 -0.0687817 0.474805 2.43588 -0 0 -2 0.025 0 0 0 0.163625 
426 1 -0.0179373 0.455344 2.42949 -0 0 -2 0.015 0 0 0 0.0353429 
433 1 -0.118613 0.17501 2.46162 -0 0 -2 0.015 0 0 0 0.0353429 
420 1 -0.037203 0.182681 2.4636 -0 0 -2 0.015 0 0 0 0.0353429 
402 1 -0.101682 0.217667 2.46549 -0 0 -2 0.015 0 0 0 0.0353429 
376 1 -0.0824761 0.237462 2.44825 -0 0 -2 0.015 0 0 0 0.0353429 
360 1 -0.116599 0.315716 2.47704 -0 0 -2 0.015 0 0 0 0.0353429 
306 1 -0.116739 0.395569 2.46487 -0 0 -2 0.025 0 0 0 0.163625 
371 1 -0.0449321 0.442824 2.47613 -0 0 -2 0.015 0 0 0 0.0353429 
412 1 -0.0937388 0.465344 2.46797 -0 0 -2 0.015 0 0 0 0.0353429 
322 1 -0.131733 0.197689 2.49451 -0 0 -2 0.025 0 0 0 0.163625 
398 1 -0.0484497 0.240461 2.50725 -0 0 -2 0.015 0 0 0 0.0353429 
363 1 -0.0911777 0.291602 2.47791 -0 0 -2 0.015 0 0 0 0.0353429 
373 1 -0.136858 0.343079 2.49944 -0 0 -2 0.015 0 0 0 0.0353429 
396 1 -0.0958984 0.364505 2.49564 -0 0 -2 0.015 0 0 0 0.0353429 
369 1 -0.138958 0.401078 2.50095 -0 0 -2 0.015 0 0 0 0.0353429 
397 1 -0.0557758 0.403383 2.47994 -0 0 -2 0.015 0 0 0 0.0353429 
383 1 -0.0262689 0.419173 2.50154 -0 0 -2 0.015 0 0 0 0.0353429 
381 1 -0.0827007 0.433694 2.4927 -0 0 -2 0.015 0 0 0 0.0353429 
308 1 -0.0755208 0.211588 2.51333 -0 0 -2 0.025 0 0 0 0.163625 
415 1 -0.127182 0.240475 2.52563 -0 0 -2 0.015 0 0 0 0.0353429 
343 1 -0.140775 0.298259 2.52958 -0 0 -2 0.025 0 0 0 0.163625 
438 1 -0.0987495 0.291508 2.51431 -0 0 -2 0.015 0 0 0 0.0353429 
356 1 -0.111476 0.333774 2.51817 -0 0 -2 0.015 0 0 0 0.0353429 
443 1 -0.0906469 0.387283 2.5245 -0 0 -2 0.015 0 0 0 0.0353429 
349 1 -0.116564 0.417399 2.53179 -0 0 -2 0.025 0 0 0 0.163625 
351 1 -0.0409452 0.415267 2.53439 -0 0 -2 0.015 0 0 0 0.0353429 
340 1 -0.149237 0.461517 2.51789 -0 0 -2 0.025 0 0 0 0.163625 
390 1 -0.0988461 0.19568 2.54664 -0 0 -2 0.015 0 0 0 0.0353429 
448 1 -0.0329565 0.20149 2.55932 -0 0 -2 0.015 0 0 0 0.0353429 
347 1 -0.0548177 0.23798 2.56265 -0 0 -2 0.025 0 0 0 0.163625 
378 1 -0.121409 0.285313 2.56655 -0 0 -2 0.015 0 0 0 0.0353429 
312 1 -0.134707 0.344673 2.5672 -0 0 -2 0.025 0 0 0 0.163625 
417 1 -0.0160313 0.444009 2.56719 -0 0 -2 0.015 0 0 0 0.0353429 
419 1 -0.111609 0.178994 2.57711 -0 0 -2 0.015 0 0 0 0.0353429 
362 1 -0.0154426 0.229504 2.57542 -0 0 -2 0.015 0 0 0 0.0353429 
421 1 -0.0930175 0.256927 2.58548 -0 0 -2 0.015 0 0 0 0.0353429 
359 1 -0.107325 0.388274 2.57151 -0 0 -2 0.015 0 0 0 0.0353429 
303 1 -0.0551599 0.406314 2.57567 -0 0 -2 0.025 0 0 0 0.163625 
365 1 -0.146907 0.425762 2.59002 -0 0 -2 0.015 0 0 0 0.0353429 
334 1 -0.103439 0.440728 2.5819 -0 0 -2 0.025 0 0 0 0.163625 
346 1 -0.149998 0.46436 2.57209 -0 0 -2 0.025 0 0 0 0.163625 
309 1 -0.144284 0.205271 2.62606 -0 0 -2 0.025 0 0 0 0.163625 
320 1 -0.0648735 0.208579 2.6164 -0 0 -2 0.025 0 0 0 0.163625 
325 1 -0.117824 0.294875 2.60762 -0 0 -2 0.025 0 0 0 0.163625 
372 1 -0.0702168 0.391047 2.61978 -0 0 -2 0.015 0 0 0 0.0353429 
447 1 -0.122284 0.473304 2.61695 -0 0 -2 0.015 0 0 0 0.0353429 
338 1 -0.0583644 0.458496 2.62725 -0 0 -2 0.025 0 0 0 0.163625 
379 1 -0.0327871 0.203074 2.64403 -0 0 -2 0.015 0 0 0 0.0353429 
430 1 -0.123083 0.250988 2.63262 -0 0 -2 0.015 0 0 0 0.0353429 
403 1 -0.0833248 0.256507 2.63457 -0 0 -2 0.015 0 0 0 0.0353429 
387 1 -0.0901615 0.367162 2.62818 -0 0 -2 0.015 0 0 0 0.0353429 
393 1 -0.015571 0.425619 2.64166 -0 0 -2 0.015 0 0 0 0.0353429 
316 1 -0.0983119 0.181261 2.66641 -0 0 -2 0.025 0 0 0 0.163625 
364 1 -0.0453235 0.209912 2.67459 -0 0 -2 0.015 0 0 0 0.0353429 
321 1 -0.126579 0.250186 2.67526 -0 0 -2 0.025 0 0 0 0.163625 
357 1 -0.0584785 0.247404 2.66225 -0 0 -2 0.015 0 0 0 0.0353429 
410 1 -0.145474 0.298701 2.67835 -0 0 -2 0.015 0 0 0 0.0353429 
333 1 -0.0978849 0.312107 2.67592 -0 0 -2 0.025 0 0 0 0.163625 
380 1 -0.127355 0.355901 2.67131 -0 0 -2 0.015 0 0 0 0.0353429 
337 1 -0.142368 0.393123 2.68588 -0 0 -2 0.025 0 0 0 0.163625 
301 1 -0.0884221 0.421264 2.66736 -0 0 -2 0.025 0 0 0 0.163625 
428 1 -0.0387226 0.430102 2.67062 -0 0 -2 0.015 0 0 0 0.0353429 
329 1 -0.123479 0.457221 2.66485 -0 0 -2 0.025 0 0 0 0.163625 
450 1 -0.0322061 0.474788 2.67145 -0 0 -2 0.015 0 0 0 0.0353429 
332 1 -0.0814262 0.231721 2.71318 -0 0 -2 0.025 0 0 0 0.163625 
400 1 -0.135353 0.274705 2.71582 -0 0 -2 0.015 0 0 0 0.0353429 
425 1 -0.074083 0.175677 2.72345 -0 0 -2 0.015 0 0 0 0.0353429 
404 1 -0.119976 0.192749 2.73939 -0 0 -2 0.015 0 0 0 0.0353429 
311 1 -0.0354402 0.189328 2.73116 -0 0 -2 0.025 0 0 0 0.163625 
345 1 -0.128178 0.236209 2.73686 -0 0 -2 0.025 0 0 0 0.163625 
435 1 -0.0960728 0.272801 2.73972 -0 0 -2 0.015 0 0 0 0.0353429 
317 1 -0.129905 0.313645 2.72865 -0 0 -2 0.025 0 0 0 0.163625 
366 1 -0.144217 0.391047 2.72691 -0 0 -2 0.015 0 0 0 0.0353429 
339 1 -0.0802774 0.437645 2.72307 -0 0 -2 0.025 0 0 0 0.163625 
405 1 -0.038992 0.42438 2.73104 -0 0 -2 0.015 0 0 0 0.0353429 
305 1 -0.0452536 0.474362 2.72345 -0 0 -2 0.025 0 0 0 0.163625 
444 1 -0.0159467 0.465681 2.7516 -0 0 -2 0.015 0 0 0 0.0353429 
289 1 0.098482 0.248857 0.919868 0.0203384 -0.134604 -5.58631 0.015 0 0 -0.346714 0.0353429 
284 1 0.0707318 0.0255655 1.02787 -0.0310215 -0.613333 -5.28103 0.015 0 0 -0.346714 0.0353429 
203 1 0.0667127 0.0152328 1.06086 0 -0.5 -5.16181 0.015 0 0 -0.346714 0.0353429 
206 1 0.0980704 0.0547121 1.06065 0.057048 -0.582454 -5.20549 0.015 0 0 -0.346714 0.0353429 
199 1 0.0899492 0.164322 1.05909 -0.00278668 -0.321029 -5.25797 0.025 0 0 -1.60516 0.163625 
214 1 0.144386 0.201733 1.07044 0 -0.5 -5.14357 0.015 0 0 -0.346714 0.0353429 
213 1 0.0350777 0.25457 1.061 0 -0.5 -5.16152 0.015 0 0 -0.346714 0.0353429 
272 1 0.0168276 0.289548 1.05626 0 -0.5 -5.17054 0.015 0 0 -0.346714 0.0353429 
259 1 0.149131 0.0558265 1.08644 0 -0.5 -5.11296 0.015 0 0 -0.346714 0.0353429 
263 1 0.025742 0.0764937 1.09837 0 -0.5 -5.09 0.015 0 0 -0.346714 0.0353429 
237 1 0.127221 0.0798858 1.08141 0.0724848 -0.475593 -5.11049 0.015 0 0 -0.346714 0.0353429 
171 1 0.0955264 0.217107 1.08578 0 -0.5 -5.11423 0.025 0 0 -1.60516 0.163625 
226 1 0.110692 0.263304 1.08082 0 -0.5 -5.12375 0.015 0 0 -0.346714 0.0353429 
241 1 0.0849537 0.285018 1.07502 0 -0.5 -5.13483 0.015 0 0 -0.346714 0.0353429 
220 1 0.0193926 0.032999 1.12636 -0.0669262 -0.554313 -5.02779 0.015 0 0 -0.346714 0.0353429 
116 1 0.0126667 0.170625 1.12235 0.36535 -0.287166 -5.14624 0.015 0 0 -0.346714 0.0353429 
177 1 0.156229 0.185258 1.12585 0.112606 -0.398162 -5.0428 0.025 0 0 -1.60516 0.163625 
184 1 0.11251 0.317841 1.16094 0 -0.5 -4.96797 0.025 0 0 -1.60516 0.163625 
249 1 0.0491797 0.255421 1.18353 0 -0.5 -4.92313 0.015 0 0 -0.346714 0.0353429 
290 1 0.149047 0.241202 1.16494 0.0439512 -0.299137 -4.91644 0.015 0 0 -0.346714 0.0353429 
166 1 0.0609489 0.319253 1.16695 0 -0.5 -4.9561 0.025 0 0 -1.60516 0.163625 
216 1 0.0889502 0.0540606 1.22242 0.0481324 -0.610657 -4.82017 0.015 0 0 -0.346714 0.0353429 
222 1 0.123753 0.0576614 1.21586 0 -0.5 -4.85829 0.015 0 0 -0.346714 0.0353429 
270 1 0.0946744 0.247669 1.19645 0 -0.5 -4.89733 0.015 0 0 -0.346714 0.0353429 
294 1 0.128315 0.280152 1.21178 0 -0.5 -4.86653 0.015 0 0 -0.346714 0.0353429 
180 1 0.0392663 0.073407 1.25299 -0.021889 -0.504465 -4.77558 0.025 0 0 -1.60516 0.163625 
170 1 0.177341 0.240517 1.23811 0.161731 -0.381986 -4.82987 0.025 0 0 -1.60516 0.163625 
231 1 0.0350342 0.27762 1.25036 0 -0.5 -4.78815 0.015 0 0 -0.346714 0.0353429 
282 1 0.0272547 0.137712 1.28481 -0.2609 -0.673185 -4.69213 0.015 0 0 -0.346714 0.0353429 
253 1 0.123075 0.165069 1.25585 0 -0.5 -4.77687 0.015 0 0 -0.346714 0.0353429 
169 1 0.0892107 0.286668 1.2719 0 -0.5 -4.74381 0.025 0 0 -1.60516 0.163625 
209 1 0.0969746 0.0532476 1.29958 0 -0.5 -4.68622 0.015 0 0 -0.346714 0.0353429 
296 1 0.146983 0.169001 1.33398 0 -0.5 -4.61363 0.015 0 0 -0.346714 0.0353429 
278 1 0.113612 0.187965 1.33223 0 -0.5 -4.61736 0.015 0 0 -0.346714 0.0353429 
257 1 0.139837 0.300641 1.3327 0 -0.5 -4.61638 0.015 0 0 -0.346714 0.0353429 
269 1 0.141487 0.0855043 1.36826 0 -0.5 -4.54015 0.015 0 0 -0.346714 0.0353429 
168 1 0.0261487 0.0901037 1.37099 0 -0.5 -4.53427 0.025 0 0 -1.60516 0.163625 
162 1 0.0478022 0.290457 1.3634 0 -0.5 -4.55065 0.025 0 0 -1.60516 0.163625 
235 1 0.134937 0.0563847 1.38247 0 -0.5 -4.50935 0.015 0 0 -0.346714 0.0353429 
185 1 0.0936576 0.134666 1.38901 0 -0.5 -4.49512 0.025 0 0 -1.60516 0.163625 
217 1 0.133752 0.135691 1.38103 0 -0.5 -4.51249 0.015 0 0 -0.346714 0.0353429 
182 1 0.114565 0.245779 1.37742 0 -0.5 -4.52034 0.025 0 0 -1.60516 0.163625 
176 1 0.0399362 0.342472 1.38111 0 -0.5 -4.51229 0.025 0 0 -1.60516 0.163625 
286 1 0.147755 0.33487 1.38003 0 -0.5 -4.51465 0.015 0 0 -0.346714 0.0353429 
153 1 0.0895866 0.0507598 1.41259 0 -0.5 -4.44333 0.025 0 0 -1.60516 0.163625 
211 1 0.0694768 0.108972 1.43122 0 -0.5 -4.40203 0.015 0 0 -0.346714 0.0353429 
251 1 0.126174 0.203559 1.42482 0 -0.5 -4.41625 0.015 0 0 -0.346714 0.0353429 
161 1 0.135356 0.15485 1.46738 0 -0.5 -4.3207 0.025 0 0 -1.60516 0.163625 
291 1 0.140432 0.279523 1.44529 0 -0.5 -4.37054 0.015 0 0 -0.346714 0.0353429 
159 1 0.087245 0.338208 1.44656 0 -0.5 -4.36769 0.025 0 0 -1.60516 0.163625 
300 1 0.149285 0.33224 1.45876 0 -0.5 -4.34022 0.015 0 0 -0.346714 0.0353429 
204 1 0.134881 0.0972481 1.46836 0 -0.5 -4.31845 0.015 0 0 -0.346714 0.0353429 
230 1 0.118982 0.195372 1.48407 0 -0.5 -4.28264 0.015 0 0 -0.346714 0.0353429 
228 1 0.0279693 0.304593 1.47497 0 -0.5 -4.30344 0.015 0 0 -0.346714 0.0353429 
175 1 0.0941494 0.0900588 1.50255 0 -0.5 -4.24006 0.025 0 0 -1.60516 0.163625 
192 1 0.134392 0.253049 1.5254 0 -0.5 -4.18689 0.025 0 0 -1.60516 0.163625 
285 1 0.0870748 0.290259 1.52698 0 -0.5 -4.18317 0.015 0 0 -0.346714 0.0353429 
256 1 0.0868225 0.322057 1.52178 0 -0.5 -4.19533 0.015 0 0 -0.346714 0.0353429 
246 1 0.0494565 0.35701 1.52769 0 -0.5 -4.1815 0.015 0 0 -0.346714 0.0353429 
250 1 0.138716 0.336193 1.51926 0 -0.5 -4.20122 0.015 0 0 -0.346714 0.0353429 
299 1 0.0153001 0.113541 1.5421 0 -0.5 -4.14756 0.015 0 0 -0.346714 0.0353429 
293 1 0.0548164 0.129145 1.53454 0 -0.5 -4.16541 0.015 0 0 -0.346714 0.0353429 
200 1 0.112803 0.146149 1.55772 0 -0.5 -4.11047 0.025 0 0 -1.60516 0.163625 
275 1 0.0211058 0.336962 1.54043 0 -0.5 -4.15148 0.015 0 0 -0.346714 0.0353429 
240 1 0.0956629 0.35388 1.52995 0 -0.5 -4.1762 0.015 0 0 -0.346714 0.0353429 
202 1 0.126943 0.0881189 1.56987 0 -0.5 -4.08134 0.015 0 0 -0.346714 0.0353429 
245 1 0.0868358 0.113715 1.5802 0 -0.5 -4.05642 0.015 0 0 -0.346714 0.0353429 
255 1 0.0340792 0.304865 1.56365 0 -0.5 -4.09625 0.015 0 0 -0.346714 0.0353429 
252 1 0.131256 0.313424 1.56366 0 -0.5 -4.09625 0.015 0 0 -0.346714 0.0353429 
189 1 0.0509787 0.087512 1.60318 0 -0.5 -4.0005 0.025 0 0 -1.60516 0.163625 
247 1 0.0532922 0.141565 1.59692 0 -0.5 -4.01581 0.015 0 0 -0.346714 0.0353429 
154 1 0.116388 0.233122 1.61485 0 -0.5 -3.97176 0.025 0 0 -1.60516 0.163625 
287 1 0.130384 0.0783502 1.6309 0 -0.5 -3.93193 0.015 0 0 -0.346714 0.0353429 
288 1 0.0326968 0.123446 1.64078 0 -0.5 -3.90721 0.015 0 0 -0.346714 0.0353429 
295 1 0.103955 0.292828 1.64377 0 -0.5 -3.89966 0.015 0 0 -0.346714 0.0353429 
156 1 0.0411221 0.341187 1.64617 0 -0.5 -3.89367 0.025 0 0 -1.60516 0.163625 
190 1 0.11779 0.346732 1.624 0 -0.5 -3.9491 0.025 0 0 -1.60516 0.163625 
210 1 0.0872868 0.0853864 1.67079 0 -0.5 -3.83109 0.015 0 0 -0.346714 0.0353429 
181 1 0.070397 0.124344 1.67814 0 -0.5 -3.81225 0.025 0 0 -1.60516 0.163625 
165 1 0.148355 0.176191 1.66731 0 -0.5 -3.84001 0.025 0 0 -1.60516 0.163625 
260 1 0.0198171 0.13312 1.70559 0 -0.5 -3.74093 0.015 0 0 -0.346714 0.0353429 
152 1 0.089118 0.191144 1.69892 0 -0.5 -3.75839 0.025 0 0 -1.60516 0.163625 
279 1 0.11959 0.251322 1.70762 0 -0.5 -3.73563 0.015 0 0 -0.346714 0.0353429 
234 1 0.0945525 0.334871 1.70866 0 -0.5 -3.73289 0.015 0 0 -0.346714 0.0353429 
233 1 0.0406697 0.103292 1.71825 0 -0.5 -3.70758 0.015 0 0 -0.346714 0.0353429 
262 1 0.0888361 0.285008 1.71353 0 -0.5 -3.72004 0.015 0 0 -0.346714 0.0353429 
207 1 0.128901 0.302384 1.73077 0 -0.5 -3.67432 0.015 0 0 -0.346714 0.0353429 
208 1 0.0680799 0.371251 1.71484 0 -0.5 -3.7166 0.015 0 0 -0.346714 0.0353429 
194 1 0.131621 0.362036 1.72802 0 -0.5 -3.68168 0.025 0 0 -1.60516 0.163625 
212 1 0.0737637 0.116983 1.77138 0 -0.5 -3.56425 0.015 0 0 -0.346714 0.0353429 
236 1 0.111584 0.130462 1.77141 0 -0.5 -3.56416 0.015 0 0 -0.346714 0.0353429 
223 1 0.0343911 0.384571 1.74521 0 -0.5 -3.63557 0.015 0 0 -0.346714 0.0353429 
178 1 0.0370442 0.101146 1.80199 0 -0.5 -3.479 0.025 0 0 -1.60516 0.163625 
224 1 0.132465 0.159362 1.80211 0 -0.5 -3.47861 0.015 0 0 -0.346714 0.0353429 
242 1 0.131055 0.208908 1.78957 0 -0.5 -3.51383 0.015 0 0 -0.346714 0.0353429 
191 1 0.0609008 0.331599 1.77484 0 -0.5 -3.55474 0.025 0 0 -1.60516 0.163625 
221 1 0.0987988 0.196271 1.81023 0 -0.5 -3.45566 0.015 0 0 -0.346714 0.0353429 
179 1 0.136485 0.262915 1.82926 0 -0.5 -3.40121 0.025 0 0 -1.60516 0.163625 