ITEM: TIMESTEP
62400
ITEM: NUMBER OF ATOMS
900
ITEM: BOX BOUNDS mm mm mm
-1 1
-1 1
-1.0936 2.85
ITEM: ATOMS id type x y z vx vy vz radius fx fy fz mass 
68 1 -0.0997213 -0.0667286 -0.870315 0 -0.5 -8.0333 0.015 0 0 -0.346714 0.0353429 
45 1 -0.0943793 -0.115762 -0.828839 0 -0.5 -7.98248 0.025 0 0 -1.60516 0.163625 
122 1 -0.0679485 -0.0637371 -0.827991 0.00811842 -0.517403 -7.98086 0.015 0 0 -0.346714 0.0353429 
137 1 -0.0909614 -0.0141659 -0.85106 -0.00924354 -0.479856 -8.01044 0.015 0 0 -0.346714 0.0353429 
33 1 -0.129286 0.124605 -0.837707 0 -0.5 -7.99337 0.025 0 0 -1.60516 0.163625 
43 1 -0.116198 0.0357854 -0.798096 0 -0.5 -7.94461 0.025 0 0 -1.60516 0.163625 
111 1 -0.0487783 0.1681 -0.797225 0 -0.5 -7.94354 0.015 0 0 -0.346714 0.0353429 
119 1 -0.0370509 -0.126811 -0.785943 0 -0.5 -7.92961 0.015 0 0 -0.346714 0.0353429 
78 1 -0.0422369 0.131955 -0.774625 0 -0.5 -7.91558 0.015 0 0 -0.346714 0.0353429 
75 1 -0.0493142 -0.0763279 -0.760713 0 -0.5 -7.89831 0.015 0 0 -0.346714 0.0353429 
89 1 -0.129145 -0.0476921 -0.751391 0 -0.5 -7.88674 0.015 0 0 -0.346714 0.0353429 
59 1 -0.0865612 0.0808678 -0.730764 0 -0.5 -7.86103 0.015 0 0 -0.346714 0.0353429 
92 1 -0.131017 0.175327 -0.708937 0 -0.5 -7.83376 0.015 0 0 -0.346714 0.0353429 
26 1 -0.0294832 0.0419972 -0.657652 0.14857 -0.341553 -7.80281 0.025 0 0 -1.60516 0.163625 
98 1 -0.147127 0.0244418 -0.628239 0 -0.5 -7.73203 0.015 0 0 -0.346714 0.0353429 
151 1 -0.0686397 0.106527 -0.629079 0 -0.5 -7.73311 0.015 0 0 -0.346714 0.0353429 
8 1 -0.104188 -0.108537 -0.603863 0 -0.5 -7.70103 0.025 0 0 -1.60516 0.163625 
3 1 -0.141317 0.0893879 -0.592689 0 -0.5 -7.68681 0.025 0 0 -1.60516 0.163625 
140 1 -0.125739 0.00155638 -0.552625 0 -0.5 -7.6355 0.015 0 0 -0.346714 0.0353429 
72 1 -0.105673 0.126796 -0.573436 0 -0.5 -7.66218 0.015 0 0 -0.346714 0.0353429 
100 1 -0.0681017 -0.040079 -0.545676 0 -0.5 -7.62657 0.015 0 0 -0.346714 0.0353429 
40 1 -0.104474 0.178198 -0.551027 0 -0.5 -7.63344 0.025 0 0 -1.60516 0.163625 
118 1 -0.0372647 0.161681 -0.538363 0 -0.5 -7.61716 0.015 0 0 -0.346714 0.0353429 
117 1 -0.0596227 -0.0969792 -0.516926 0 -0.5 -7.58949 0.015 0 0 -0.346714 0.0353429 
148 1 -0.202162 0.0579092 -0.503275 -0.171679 -0.397353 -7.63883 0.015 0 0 -0.346714 0.0353429 
51 1 -0.163628 -0.0864188 -0.480634 -0.0265052 -0.519812 -7.53759 0.025 0 0 -1.60516 0.163625 
282 1 -0.0478844 -0.0561651 -0.473366 -0.2609 -0.673185 -7.51741 0.015 0 0 -0.346714 0.0353429 
90 1 -0.146535 0.179667 -0.435456 0 -0.5 -7.48345 0.015 0 0 -0.346714 0.0353429 
60 1 -0.0770515 -0.0880724 -0.407845 0 -0.5 -7.44715 0.015 0 0 -0.346714 0.0353429 
11 1 -0.0950395 0.0796134 -0.418809 0.022917 -0.457889 -7.47631 0.025 0 0 -1.60516 0.163625 
50 1 -0.130982 0.136355 -0.405827 0 -0.5 -7.4445 0.025 0 0 -1.60516 0.163625 
105 1 -0.254965 0.0888772 -0.348466 -0.321192 -0.368687 -7.36002 0.015 0 0 -0.346714 0.0353429 
74 1 -0.0790012 0.123893 -0.360368 0 -0.5 -7.38437 0.015 0 0 -0.346714 0.0353429 
76 1 -0.0202065 0.15207 -0.339663 0 -0.5 -7.3568 0.015 0 0 -0.346714 0.0353429 
44 1 -0.125916 -0.0964035 -0.325858 0 -0.5 -7.33836 0.025 0 0 -1.60516 0.163625 
36 1 -0.103411 -0.0496875 -0.297899 0 -0.5 -7.30088 0.025 0 0 -1.60516 0.163625 
29 1 -0.0788351 0.166182 -0.305714 0 -0.5 -7.31138 0.025 0 0 -1.60516 0.163625 
54 1 -0.176476 -0.0204834 -0.267879 -0.0956439 -0.529683 -7.24958 0.015 0 0 -0.346714 0.0353429 
114 1 -0.0721039 -0.0194799 -0.251724 -0.00040144 -0.499666 -7.23867 0.015 0 0 -0.346714 0.0353429 
113 1 -0.118506 0.201198 -0.220625 0 -0.5 -7.19631 0.015 0 0 -0.346714 0.0353429 
73 1 -0.0639552 -0.0702333 -0.212341 0 -0.5 -7.18503 0.015 0 0 -0.346714 0.0353429 
2 1 -0.110349 0.0770712 -0.204884 0 -0.5 -7.17482 0.025 0 0 -1.60516 0.163625 
146 1 -0.109965 -0.0830837 -0.183193 0 -0.5 -7.1451 0.015 0 0 -0.346714 0.0353429 
88 1 -0.0666498 0.143919 -0.162145 0 -0.5 -7.11616 0.015 0 0 -0.346714 0.0353429 
12 1 -0.0363281 0.186336 -0.185179 0 -0.5 -7.14785 0.025 0 0 -1.60516 0.163625 
99 1 -0.146283 -0.0184829 -0.131214 0 -0.5 -7.07339 0.015 0 0 -0.346714 0.0353429 
57 1 -0.120673 0.0330605 -0.147876 0 -0.5 -7.09644 0.015 0 0 -0.346714 0.0353429 
10 1 -0.0634823 0.161109 -0.1236 0.0635655 -0.375939 -7.13008 0.025 0 0 -1.60516 0.163625 
19 1 -0.0715757 -0.00874762 -0.0802724 0 -0.5 -7.00236 0.025 0 0 -1.60516 0.163625 
66 1 -0.0281121 -0.0311772 -0.0750171 0 -0.5 -6.99501 0.015 0 0 -0.346714 0.0353429 
83 1 -0.108229 0.011146 -0.0852365 0 -0.5 -7.00933 0.015 0 0 -0.346714 0.0353429 
34 1 -0.138562 0.150511 -0.0927429 0 -0.5 -7.01983 0.025 0 0 -1.60516 0.163625 
67 1 -0.0183057 -0.0756113 -0.0405902 0 -0.5 -6.94655 0.015 0 0 -0.346714 0.0353429 
81 1 -0.0324998 0.167124 -0.0587583 0.07636 -0.438847 -6.94252 0.015 0 0 -0.346714 0.0353429 
71 1 -0.145263 0.194198 -0.0640378 0 -0.5 -6.97961 0.015 0 0 -0.346714 0.0353429 
24 1 -0.138394 -0.0485481 -0.0237313 0 -0.5 -6.92271 0.025 0 0 -1.60516 0.163625 
133 1 -0.127566 0.0679444 -0.0118368 0 -0.5 -6.90583 0.015 0 0 -0.346714 0.0353429 
95 1 -0.10482 0.155312 -0.00708131 0 -0.5 -6.89906 0.015 0 0 -0.346714 0.0353429 
39 1 -0.0696793 0.20501 -0.00693003 0 -0.5 -6.89887 0.025 0 0 -1.60516 0.163625 
103 1 -0.135939 -0.00427768 0.026476 0 -0.5 -6.85119 0.015 0 0 -0.346714 0.0353429 
70 1 -0.107191 -0.0220756 0.0430879 0 -0.5 -6.82735 0.015 0 0 -0.346714 0.0353429 
143 1 -0.11631 0.213682 0.0383147 0 -0.5 -6.83422 0.015 0 0 -0.346714 0.0353429 
28 1 -0.0685748 -0.0459299 0.0771809 0 -0.5 -6.77821 0.025 0 0 -1.60516 0.163625 
97 1 -0.0338223 -0.018856 0.0649629 0 -0.5 -6.79586 0.015 0 0 -0.346714 0.0353429 
115 1 -0.076478 0.0164311 0.0655114 0 -0.5 -6.79508 0.015 0 0 -0.346714 0.0353429 
85 1 -0.13789 0.138015 0.0687676 0 -0.5 -6.79037 0.015 0 0 -0.346714 0.0353429 
126 1 -0.125219 0.0594844 0.108895 -0.0288748 -0.539424 -6.71371 0.015 0 0 -0.346714 0.0353429 
134 1 -0.137197 0.178367 0.0905045 0 -0.5 -6.75888 0.015 0 0 -0.346714 0.0353429 
77 1 -0.0297287 0.206749 0.100022 0 -0.5 -6.74505 0.015 0 0 -0.346714 0.0353429 
120 1 -0.148569 0.227261 0.102735 0 -0.5 -6.74112 0.015 0 0 -0.346714 0.0353429 
96 1 -0.131998 -0.0189186 0.126198 0 -0.5 -6.70689 0.015 0 0 -0.346714 0.0353429 
38 1 -0.121616 0.0221879 0.153547 0 -0.5 -6.66676 0.025 0 0 -1.60516 0.163625 
130 1 -0.0642546 0.0164407 0.20439 0 -0.5 -6.59152 0.015 0 0 -0.346714 0.0353429 
23 1 -0.134189 0.158519 0.203208 0 -0.5 -6.59329 0.025 0 0 -1.60516 0.163625 
150 1 -0.100106 -0.00679308 0.234021 0 -0.5 -6.54728 0.015 0 0 -0.346714 0.0353429 
18 1 -0.106015 0.223686 0.235649 0 -0.5 -6.54483 0.025 0 0 -1.60516 0.163625 
4 1 -0.0330873 0.236857 0.234615 0 -0.5 -6.5464 0.025 0 0 -1.60516 0.163625 
31 1 -0.140814 -0.0411227 0.253094 0 -0.5 -6.51863 0.025 0 0 -1.60516 0.163625 
106 1 -0.145862 0.343684 0.255184 -0.0998962 -0.230395 -6.62737 0.015 0 0 -0.346714 0.0353429 
110 1 -0.0868918 -0.0515835 0.287443 0 -0.5 -6.46674 0.015 0 0 -0.346714 0.0353429 
93 1 -0.0244706 -0.0398422 0.304801 0 -0.5 -6.44035 0.015 0 0 -0.346714 0.0353429 
17 1 -0.134634 0.0740265 0.31355 0 -0.5 -6.42701 0.025 0 0 -1.60516 0.163625 
136 1 -0.0832352 0.167008 0.30931 0 -0.5 -6.43348 0.015 0 0 -0.346714 0.0353429 
30 1 -0.0481876 0.194857 0.319399 0 -0.5 -6.41808 0.025 0 0 -1.60516 0.163625 
109 1 -0.0676248 0.24208 0.318039 0 -0.5 -6.42014 0.015 0 0 -0.346714 0.0353429 
108 1 -0.089121 -0.0191765 0.372016 0 -0.5 -6.33715 0.015 0 0 -0.346714 0.0353429 
1 1 -0.151146 0.425467 0.35637 -0.021394 -0.0706631 -6.49233 0.025 0 0 -1.60516 0.163625 
69 1 -0.020474 0.00108251 0.400113 0 -0.5 -6.29349 0.015 0 0 -0.346714 0.0353429 
35 1 -0.146938 0.174792 0.408469 0 -0.5 -6.28045 0.025 0 0 -1.60516 0.163625 
102 1 -0.11709 -0.0191005 0.447234 0 -0.5 -6.21962 0.015 0 0 -0.346714 0.0353429 
139 1 -0.104092 0.038572 0.447037 0 -0.5 -6.21992 0.015 0 0 -0.346714 0.0353429 
144 1 -0.0691235 0.0414741 0.445867 0 -0.5 -6.22178 0.015 0 0 -0.346714 0.0353429 
22 1 -0.102489 0.106306 0.440695 0 -0.5 -6.22992 0.025 0 0 -1.60516 0.163625 
149 1 -0.0299738 0.0965402 0.430357 0.199959 -0.45766 -6.42709 0.015 0 0 -0.346714 0.0353429 
14 1 -0.0571303 -0.0270245 0.460701 0 -0.5 -6.19834 0.025 0 0 -1.60516 0.163625 
55 1 -0.0960003 0.212401 0.466569 -7.52477e-06 -0.49998 -6.18905 0.015 0 0 -0.346714 0.0353429 
141 1 -0.136875 0.0542642 0.479067 0 -0.5 -6.1692 0.015 0 0 -0.346714 0.0353429 
21 1 -0.0470047 0.2575 0.497153 0 -0.5 -6.14036 0.025 0 0 -1.60516 0.163625 
87 1 -0.113676 0.175588 0.515478 0 -0.5 -6.11103 0.015 0 0 -0.346714 0.0353429 
94 1 -0.260436 0.20841 0.511636 -0.356499 -0.190573 -6.17659 0.015 0 0 -0.346714 0.0353429 
107 1 -0.141609 -0.0300523 0.548157 0 -0.5 -6.05835 0.015 0 0 -0.346714 0.0353429 
147 1 -0.100309 0.245431 0.567726 0 -0.5 -6.02656 0.015 0 0 -0.346714 0.0353429 
112 1 -0.073338 0.0532787 0.580421 0 -0.5 -6.00586 0.015 0 0 -0.346714 0.0353429 
84 1 -0.116406 0.133786 0.576162 0 -0.5 -6.01283 0.015 0 0 -0.346714 0.0353429 
142 1 -0.0724928 -0.00525219 0.607113 0 -0.5 -5.96211 0.015 0 0 -0.346714 0.0353429 
145 1 -0.0934491 0.210113 0.609742 0 -0.5 -5.9578 0.015 0 0 -0.346714 0.0353429 
80 1 -0.102893 0.180893 0.629232 0 -0.5 -5.92562 0.015 0 0 -0.346714 0.0353429 
47 1 -0.140465 0.21745 0.607231 0 -0.5 -5.96192 0.025 0 0 -1.60516 0.163625 
6 1 -0.069479 0.0443321 0.635198 0.101461 -0.428163 -5.92129 0.025 0 0 -1.60516 0.163625 
32 1 -0.173739 -0.0275592 0.667894 -0.0613285 -0.540948 -5.85835 0.025 0 0 -1.60516 0.163625 
138 1 -0.0317395 -0.00268441 0.68827 0 -0.5 -5.82703 0.015 0 0 -0.346714 0.0353429 
135 1 -0.140472 0.0628926 0.664885 0 -0.5 -5.86627 0.015 0 0 -0.346714 0.0353429 
15 1 -0.0760435 0.149594 0.676781 0.0430154 -0.390763 -5.81409 0.025 0 0 -1.60516 0.163625 
62 1 -0.0849655 0.270406 0.664547 0 -0.5 -5.86686 0.015 0 0 -0.346714 0.0353429 
280 1 -0.0826461 0.439841 0.68155 -0.323138 -0.0374805 -5.92894 0.015 0 0 -0.346714 0.0353429 
128 1 -0.145291 0.147677 0.690319 0 -0.5 -5.82359 0.015 0 0 -0.346714 0.0353429 
121 1 -0.0679495 0.252078 0.714984 0 -0.5 -5.7819 0.015 0 0 -0.346714 0.0353429 
129 1 -0.0553418 0.0211994 0.76023 0 -0.5 -5.7046 0.015 0 0 -0.346714 0.0353429 
13 1 -0.146779 0.103821 0.778223 0 -0.5 -5.6736 0.025 0 0 -1.60516 0.163625 
101 1 -0.102489 0.113824 0.773214 0 -0.5 -5.68223 0.015 0 0 -0.346714 0.0353429 
37 1 -0.0716655 0.216665 0.772532 0 -0.5 -5.68341 0.025 0 0 -1.60516 0.163625 
46 1 -0.032303 0.278569 0.778955 0 -0.5 -5.67232 0.025 0 0 -1.60516 0.163625 
61 1 -0.0231802 -0.00906524 0.792144 0 -0.5 -5.64947 0.015 0 0 -0.346714 0.0353429 
52 1 -0.100497 0.00648951 0.802287 0 -0.5 -5.63181 0.015 0 0 -0.346714 0.0353429 
79 1 -0.0179342 0.0249843 0.792249 0 -0.5 -5.64927 0.015 0 0 -0.346714 0.0353429 
91 1 -0.124131 0.210132 0.792816 0 -0.5 -5.64829 0.015 0 0 -0.346714 0.0353429 
5 1 -0.137704 0.0344118 0.81545 0 -0.5 -5.60885 0.025 0 0 -1.60516 0.163625 
7 1 -0.0712578 0.0734494 0.819541 0 -0.5 -5.60169 0.025 0 0 -1.60516 0.163625 
20 1 -0.124339 0.161888 0.811358 0 -0.5 -5.61602 0.025 0 0 -1.60516 0.163625 
86 1 -0.142939 0.203059 0.862598 0 -0.5 -5.52576 0.015 0 0 -0.346714 0.0353429 
9 1 -0.0320364 0.237159 0.866802 0 -0.5 -5.51831 0.025 0 0 -1.60516 0.163625 
65 1 -0.147981 0.0110967 0.900652 0 -0.5 -5.45778 0.015 0 0 -0.346714 0.0353429 
58 1 -0.0969698 0.107891 0.883854 0 -0.5 -5.4879 0.015 0 0 -0.346714 0.0353429 
124 1 -0.136447 0.233377 0.883697 0 -0.5 -5.48819 0.015 0 0 -0.346714 0.0353429 
41 1 -0.107908 0.288758 0.897495 0 -0.5 -5.46347 0.025 0 0 -1.60516 0.163625 
104 1 -0.138444 0.175217 0.946207 0 -0.5 -5.37528 0.015 0 0 -0.346714 0.0353429 
131 1 -0.025873 0.27604 0.934571 0 -0.5 -5.39647 0.015 0 0 -0.346714 0.0353429 
49 1 -0.0613084 0.0217105 0.992865 0 -0.5 -5.28944 0.025 0 0 -1.60516 0.163625 
132 1 -0.0234712 0.0441681 0.968976 0 -0.5 -5.33359 0.015 0 0 -0.346714 0.0353429 
48 1 -0.144727 0.101852 0.968004 0 -0.5 -5.33535 0.025 0 0 -1.60516 0.163625 
53 1 -0.106432 0.14634 0.970576 0 -0.5 -5.33064 0.015 0 0 -0.346714 0.0353429 
82 1 -0.0851821 0.235627 1.00428 0 -0.5 -5.26825 0.015 0 0 -0.346714 0.0353429 
16 1 -0.129915 0.245079 0.99663 0 -0.5 -5.28248 0.025 0 0 -1.60516 0.163625 
27 1 -0.0637137 0.271885 0.997412 0 -0.5 -5.281 0.025 0 0 -1.60516 0.163625 
63 1 -0.147823 0.301713 1.01552 0 -0.5 -5.24726 0.015 0 0 -0.346714 0.0353429 
25 1 -0.104447 0.0557853 1.05005 0 -0.5 -5.18231 0.025 0 0 -1.60516 0.163625 
127 1 -0.0304133 0.0676212 1.03649 0 -0.5 -5.20792 0.015 0 0 -0.346714 0.0353429 
56 1 -0.11556 0.299119 1.03632 0 -0.5 -5.20821 0.015 0 0 -0.346714 0.0353429 
42 1 -0.132916 0.148796 1.06729 0 -0.5 -5.14955 0.025 0 0 -1.60516 0.163625 
123 1 -0.11925 0.205492 1.07166 0 -0.5 -5.14121 0.015 0 0 -0.346714 0.0353429 
392 1 -0.0201822 0.0193766 1.10804 0 -0.5 -5.07136 0.015 0 0 -0.346714 0.0353429 
361 1 -0.0655065 0.0471594 1.10509 0 -0.5 -5.07705 0.015 0 0 -0.346714 0.0353429 
64 1 -0.145219 0.269177 1.08822 0 -0.5 -5.10952 0.015 0 0 -0.346714 0.0353429 
125 1 -0.0960051 0.261127 1.09043 0 -0.5 -5.10531 0.015 0 0 -0.346714 0.0353429 
391 1 -0.0665259 0.24619 1.10671 0 -0.5 -5.07391 0.015 0 0 -0.346714 0.0353429 
375 1 -0.132504 0.0842129 1.11623 0 -0.5 -5.05547 0.015 0 0 -0.346714 0.0353429 
353 1 -0.0778865 0.10051 1.13877 0 -0.5 -5.01152 0.015 0 0 -0.346714 0.0353429 
370 1 -0.0476722 0.318061 1.13874 0 -0.5 -5.01162 0.015 0 0 -0.346714 0.0353429 
449 1 -0.121601 0.0249702 1.16595 0 -0.5 -4.95806 0.015 0 0 -0.346714 0.0353429 
432 1 -0.110656 0.160023 1.15312 0 -0.5 -4.98337 0.015 0 0 -0.346714 0.0353429 
423 1 -0.035066 0.264352 1.15118 0 -0.5 -4.98719 0.015 0 0 -0.346714 0.0353429 
348 1 -0.0478682 0.0353337 1.18649 -0.0150753 -0.514502 -4.91391 0.025 0 0 -1.60516 0.163625 
409 1 -0.1116 0.132279 1.19439 0 -0.5 -4.90145 0.015 0 0 -0.346714 0.0353429 
434 1 -0.110177 0.292235 1.19189 0 -0.5 -4.90646 0.015 0 0 -0.346714 0.0353429 
304 1 -0.147639 0.258299 1.22207 0 -0.5 -4.84573 0.025 0 0 -1.60516 0.163625 
414 1 -0.12165 0.202412 1.25723 0 -0.5 -4.77402 0.015 0 0 -0.346714 0.0353429 
327 1 -0.047146 0.295396 1.2516 0 -0.5 -4.7856 0.025 0 0 -1.60516 0.163625 
368 1 -0.0426125 0.0701031 1.27569 0 -0.5 -4.73596 0.015 0 0 -0.346714 0.0353429 
328 1 -0.101567 0.0953596 1.29259 0 -0.5 -4.70084 0.025 0 0 -1.60516 0.163625 
416 1 -0.148865 0.223752 1.27028 0 -0.5 -4.74714 0.015 0 0 -0.346714 0.0353429 
342 1 -0.0942786 0.246007 1.29384 0 -0.5 -4.69819 0.025 0 0 -1.60516 0.163625 
422 1 -0.0856494 0.286628 1.2738 0 -0.5 -4.73988 0.015 0 0 -0.346714 0.0353429 
440 1 -0.074831 0.0466332 1.31842 0 -0.5 -4.64659 0.015 0 0 -0.346714 0.0353429 
307 1 -0.141488 0.0643164 1.30454 0 -0.5 -4.67582 0.025 0 0 -1.60516 0.163625 
441 1 -0.0895132 0.324957 1.30495 0 -0.5 -4.67494 0.015 0 0 -0.346714 0.0353429 
388 1 -0.0545692 0.110686 1.3475 0 -0.5 -4.58479 0.015 0 0 -0.346714 0.0353429 
323 1 -0.131477 0.179813 1.34545 0 -0.5 -4.5892 0.025 0 0 -1.60516 0.163625 
352 1 -0.144025 0.283939 1.32965 0 -0.5 -4.62285 0.015 0 0 -0.346714 0.0353429 
406 1 -0.0920408 0.283666 1.35611 0 -0.5 -4.56635 0.015 0 0 -0.346714 0.0353429 
330 1 -0.125578 0.340028 1.33421 0 -0.5 -4.61314 0.025 0 0 -1.60516 0.163625 
331 1 -0.138106 0.051831 1.41096 0 -0.5 -4.44696 0.025 0 0 -1.60516 0.163625 
418 1 -0.0554251 0.0569403 1.39725 0 -0.5 -4.47707 0.015 0 0 -0.346714 0.0353429 
395 1 -0.110093 0.107872 1.40445 0 -0.5 -4.46128 0.015 0 0 -0.346714 0.0353429 
318 1 -0.126425 0.257158 1.39479 0 -0.5 -4.48247 0.025 0 0 -1.60516 0.163625 
336 1 -0.025747 0.290523 1.40355 0 -0.5 -4.46324 0.025 0 0 -1.60516 0.163625 
313 1 -0.0392615 0.0956895 1.4247 0 -0.5 -4.41655 0.025 0 0 -1.60516 0.163625 
374 1 -0.133879 0.317467 1.42711 0 -0.5 -4.41115 0.015 0 0 -0.346714 0.0353429 
310 1 -0.0919271 0.327993 1.44595 0 -0.5 -4.36907 0.025 0 0 -1.60516 0.163625 
315 1 -0.0970947 0.162406 1.44896 0 -0.5 -4.3623 0.025 0 0 -1.60516 0.163625 
445 1 -0.0938501 0.232643 1.46504 0 -0.5 -4.326 0.015 0 0 -0.346714 0.0353429 
407 1 -0.0713596 0.290089 1.45045 0 -0.5 -4.35896 0.015 0 0 -0.346714 0.0353429 
377 1 -0.128279 0.0797203 1.48916 0 -0.5 -4.27097 0.015 0 0 -0.346714 0.0353429 
344 1 -0.147144 0.233445 1.50581 0 -0.5 -4.23251 0.025 0 0 -1.60516 0.163625 
386 1 -0.118095 0.30111 1.48504 0 -0.5 -4.28038 0.015 0 0 -0.346714 0.0353429 
302 1 -0.0567477 0.0773163 1.52526 0 -0.5 -4.18719 0.025 0 0 -1.60516 0.163625 
401 1 -0.0913429 0.10878 1.52321 0 -0.5 -4.192 0.015 0 0 -0.346714 0.0353429 
314 1 -0.136534 0.145236 1.53453 0 -0.5 -4.16541 0.025 0 0 -1.60516 0.163625 
439 1 -0.132801 0.195897 1.5201 0 -0.5 -4.19925 0.015 0 0 -0.346714 0.0353429 
431 1 -0.13363 0.105651 1.56395 0 -0.5 -4.09556 0.015 0 0 -0.346714 0.0353429 
355 1 -0.0483468 0.124759 1.55643 0 -0.5 -4.11352 0.015 0 0 -0.346714 0.0353429 
354 1 -0.0927402 0.293498 1.56231 0 -0.5 -4.09949 0.015 0 0 -0.346714 0.0353429 
413 1 -0.0512121 0.294816 1.55008 0 -0.5 -4.12862 0.015 0 0 -0.346714 0.0353429 
442 1 -0.149932 0.354171 1.55146 0 -0.5 -4.12539 0.015 0 0 -0.346714 0.0353429 
408 1 -0.087028 0.362439 1.56079 0 -0.5 -4.10312 0.015 0 0 -0.346714 0.0353429 
446 1 -0.116317 0.262626 1.58596 0 -0.5 -4.04249 0.015 0 0 -0.346714 0.0353429 
411 1 -0.0485728 0.345056 1.59407 0 -0.5 -4.02277 0.015 0 0 -0.346714 0.0353429 
382 1 -0.10658 0.38136 1.58147 0.026541 -0.439017 -4.13871 0.015 0 0 -0.346714 0.0353429 
399 1 -0.074527 0.128048 1.62877 0 -0.5 -3.93723 0.015 0 0 -0.346714 0.0353429 
436 1 -0.0854574 0.182951 1.6281 0 -0.5 -3.9389 0.015 0 0 -0.346714 0.0353429 
427 1 -0.0991104 0.415872 1.61456 0.0988458 -0.172977 -4.17594 0.015 0 0 -0.346714 0.0353429 
324 1 -0.0498553 0.0827032 1.65056 0 -0.5 -3.88259 0.025 0 0 -1.60516 0.163625 
350 1 -0.147794 0.115395 1.64061 0 -0.5 -3.9076 0.025 0 0 -1.60516 0.163625 
335 1 -0.126459 0.176418 1.64039 0 -0.5 -3.90819 0.025 0 0 -1.60516 0.163625 
437 1 -0.0723044 0.159232 1.65819 0 -0.5 -3.86326 0.015 0 0 -0.346714 0.0353429 
341 1 -0.148816 0.296228 1.63086 0 -0.5 -3.93203 0.025 0 0 -1.60516 0.163625 
385 1 -0.0696212 0.305365 1.64725 0 -0.5 -3.89093 0.015 0 0 -0.346714 0.0353429 
384 1 -0.168012 0.386088 1.64347 -0.135564 -0.440896 -3.92203 0.015 0 0 -0.346714 0.0353429 
389 1 -0.0230912 0.369676 1.63204 0 -0.5 -3.92909 0.015 0 0 -0.346714 0.0353429 
394 1 -0.145405 0.334684 1.68221 0 -0.5 -3.80175 0.015 0 0 -0.346714 0.0353429 
358 1 -0.127277 0.106792 1.70791 0 -0.5 -3.73485 0.015 0 0 -0.346714 0.0353429 
367 1 -0.106717 0.139831 1.69364 0 -0.5 -3.77213 0.015 0 0 -0.346714 0.0353429 
326 1 -0.145564 0.236454 1.70963 0 -0.5 -3.73034 0.025 0 0 -1.60516 0.163625 
424 1 -0.130395 0.361664 1.70082 -0.0730123 -0.390635 -3.76338 0.015 0 0 -0.346714 0.0353429 
319 1 -0.0687817 0.386025 1.70525 0 -0.5 -3.74181 0.025 0 0 -1.60516 0.163625 
426 1 -0.0179373 0.364964 1.69324 0 -0.5 -3.77321 0.015 0 0 -0.346714 0.0353429 
376 1 -0.0824761 0.151772 1.72819 0 -0.5 -3.68119 0.015 0 0 -0.346714 0.0353429 
433 1 -0.118613 0.0926652 1.7526 0 -0.5 -3.61556 0.015 0 0 -0.346714 0.0353429 
420 1 -0.037203 0.100826 1.75615 0 -0.5 -3.60595 0.015 0 0 -0.346714 0.0353429 
402 1 -0.101682 0.136287 1.75956 0 -0.5 -3.59663 0.015 0 0 -0.346714 0.0353429 
363 1 -0.0911777 0.213327 1.7817 0 -0.5 -3.53571 0.015 0 0 -0.346714 0.0353429 
360 1 -0.116599 0.237221 1.78016 0 -0.5 -3.54002 0.015 0 0 -0.346714 0.0353429 
306 1 -0.116739 0.314034 1.75844 0 -0.5 -3.59967 0.025 0 0 -1.60516 0.163625 
412 1 -0.0937388 0.384584 1.76401 0 -0.5 -3.58446 0.015 0 0 -0.346714 0.0353429 
371 1 -0.0449321 0.364104 1.77855 0 -0.5 -3.54444 0.015 0 0 -0.346714 0.0353429 
322 1 -0.131733 0.123564 1.81072 0 -0.5 -3.45428 0.025 0 0 -1.60516 0.163625 
396 1 -0.0958984 0.29066 1.81266 0 -0.5 -3.44879 0.015 0 0 -0.346714 0.0353429 
397 1 -0.0557758 0.325618 1.7853 0 -0.5 -3.5257 0.015 0 0 -0.346714 0.0353429 
381 1 -0.0827007 0.359114 1.80757 0 -0.5 -3.46321 0.015 0 0 -0.346714 0.0353429 
308 1 -0.0778541 0.139899 1.84325 -0.0168546 -0.516386 -3.35865 0.025 0 0 -1.60516 0.163625 
398 1 -0.00544145 0.216613 1.82326 0.308366 -0.162474 -3.45815 0.015 0 0 -0.346714 0.0353429 
373 1 -0.136858 0.270184 1.81919 0 -0.5 -3.43015 0.015 0 0 -0.346714 0.0353429 
369 1 -0.138958 0.328563 1.82179 0 -0.5 -3.4227 0.015 0 0 -0.346714 0.0353429 
383 1 -0.0262689 0.346803 1.82279 0 -0.5 -3.41985 0.015 0 0 -0.346714 0.0353429 
415 1 -0.127182 0.17413 1.86328 0 -0.5 -3.30164 0.015 0 0 -0.346714 0.0353429 
343 1 -0.140775 0.232899 1.86977 0 -0.5 -3.28231 0.025 0 0 -1.60516 0.163625 
438 1 -0.0987495 0.222333 1.84443 0 -0.5 -3.35716 0.015 0 0 -0.346714 0.0353429 
356 1 -0.111476 0.265564 1.85089 0 -0.5 -3.33823 0.015 0 0 -0.346714 0.0353429 
443 1 -0.0906469 0.320658 1.86142 0 -0.5 -3.30713 0.015 0 0 -0.346714 0.0353429 
349 1 -0.116564 0.352594 1.8734 0 -0.5 -3.27143 0.025 0 0 -1.60516 0.163625 
340 1 -0.149237 0.393237 1.85043 0 -0.5 -3.3396 0.025 0 0 -1.60516 0.163625 
390 1 -0.0988461 0.13459 1.89743 0 -0.5 -3.19854 0.015 0 0 -0.346714 0.0353429 
351 1 -0.0409452 0.351112 1.87764 0 -0.5 -3.25867 0.015 0 0 -0.346714 0.0353429 
448 1 -0.0329565 0.14357 1.91751 0 -0.5 -3.13634 0.015 0 0 -0.346714 0.0353429 
347 1 -0.0548177 0.18089 1.92271 0 -0.5 -3.12006 0.025 0 0 -1.60516 0.163625 
378 1 -0.121409 0.229198 1.92877 0 -0.5 -3.10093 0.015 0 0 -0.346714 0.0353429 
312 1 -0.134707 0.288718 1.92978 0 -0.5 -3.09779 0.025 0 0 -1.60516 0.163625 
417 1 -0.0160313 0.388054 1.92976 0 -0.5 -3.09779 0.015 0 0 -0.346714 0.0353429 
346 1 -0.151522 0.42724 1.92902 -0.0151472 -0.325165 -3.15622 0.025 0 0 -1.60516 0.163625 
419 1 -0.111609 0.125519 1.94501 0 -0.5 -3.04913 0.015 0 0 -0.346714 0.0353429 
362 1 -0.0154426 0.175609 1.94244 0 -0.5 -3.05737 0.015 0 0 -0.346714 0.0353429 
421 1 -0.0930175 0.205542 1.95768 0 -0.5 -3.00812 0.015 0 0 -0.346714 0.0353429 
359 1 -0.107325 0.333399 1.93643 0 -0.5 -3.0766 0.015 0 0 -0.346714 0.0353429 
303 1 -0.0551599 0.352479 1.94282 0 -0.5 -3.05619 0.025 0 0 -1.60516 0.163625 
334 1 -0.103439 0.388448 1.95228 0 -0.5 -3.02568 0.025 0 0 -1.60516 0.163625 
325 1 -0.117824 0.249025 1.99038 0 -0.5 -2.89953 0.025 0 0 -1.60516 0.163625 
365 1 -0.143684 0.34114 1.98096 0.0322739 -0.84426 -2.82094 0.015 0 0 -0.346714 0.0353429 
309 1 -0.144284 0.164031 2.0167 0 -0.5 -2.80908 0.025 0 0 -1.60516 0.163625 
320 1 -0.0648735 0.164929 2.00302 0 -0.5 -2.85636 0.025 0 0 -1.60516 0.163625 
430 1 -0.123083 0.211393 2.02586 0 -0.5 -2.7768 0.015 0 0 -0.346714 0.0353429 
387 1 -0.0901615 0.326452 2.01967 0 -0.5 -2.79868 0.015 0 0 -0.346714 0.0353429 
372 1 -0.0702168 0.348237 2.00782 0 -0.5 -2.83988 0.015 0 0 -0.346714 0.0353429 
338 1 -0.0583644 0.417556 2.01837 0 -0.5 -2.80319 0.025 0 0 -1.60516 0.163625 
447 1 -0.122284 0.429789 2.00381 0 -0.5 -2.85372 0.015 0 0 -0.346714 0.0353429 
379 1 -0.0327871 0.166329 2.04154 0 -0.5 -2.72089 0.015 0 0 -0.346714 0.0353429 
403 1 -0.0833248 0.217397 2.02857 0 -0.5 -2.76729 0.015 0 0 -0.346714 0.0353429 
393 1 -0.015571 0.388279 2.0383 0 -0.5 -2.73256 0.015 0 0 -0.346714 0.0353429 
316 1 -0.0983119 0.150111 2.07138 0 -0.5 -2.61111 0.025 0 0 -1.60516 0.163625 
364 1 -0.0453235 0.180807 2.08197 0 -0.5 -2.57099 0.015 0 0 -0.346714 0.0353429 
321 1 -0.126579 0.221251 2.08284 0 -0.5 -2.56766 0.025 0 0 -1.60516 0.163625 
357 1 -0.0584785 0.215214 2.06592 0 -0.5 -2.63152 0.015 0 0 -0.346714 0.0353429 
410 1 -0.145474 0.270536 2.08679 0 -0.5 -2.55255 0.015 0 0 -0.346714 0.0353429 
333 1 -0.0978849 0.283337 2.08369 0 -0.5 -2.56442 0.025 0 0 -1.60516 0.163625 
380 1 -0.127355 0.325976 2.07774 0 -0.5 -2.58708 0.015 0 0 -0.346714 0.0353429 
301 1 -0.0876925 0.389616 2.07261 0.012148 -0.512208 -2.60649 0.025 0 0 -1.60516 0.163625 
428 1 -0.0387226 0.400002 2.07685 0 -0.5 -2.59051 0.015 0 0 -0.346714 0.0353429 
329 1 -0.124311 0.426528 2.06933 -0.0138001 -0.485947 -2.6189 0.025 0 0 -1.60516 0.163625 
450 1 -0.0322061 0.444898 2.07792 0 -0.5 -2.58639 0.015 0 0 -0.346714 0.0353429 
337 1 -0.142368 0.366838 2.09632 0 -0.5 -2.51566 0.025 0 0 -1.60516 0.163625 
425 1 -0.074083 0.158787 2.14186 0 -0.5 -2.33133 0.015 0 0 -0.346714 0.0353429 
332 1 -0.0814262 0.212266 2.12976 0 -0.5 -2.38166 0.025 0 0 -1.60516 0.163625 
400 1 -0.135353 0.255905 2.13288 0 -0.5 -2.36881 0.015 0 0 -0.346714 0.0353429 
317 1 -0.129905 0.298055 2.14788 0 -0.5 -2.30583 0.025 0 0 -1.60516 0.163625 
366 1 -0.144217 0.375022 2.14587 0 -0.5 -2.31436 0.015 0 0 -0.346714 0.0353429 
339 1 -0.0802774 0.42066 2.14141 0 -0.5 -2.3332 0.025 0 0 -1.60516 0.163625 
305 1 -0.0452536 0.457472 2.14185 0 -0.5 -2.33133 0.025 0 0 -1.60516 0.163625 
404 1 -0.119976 0.179844 2.16013 0 -0.5 -2.25315 0.015 0 0 -0.346714 0.0353429 
311 1 -0.0354402 0.174368 2.15077 0 -0.5 -2.29347 0.025 0 0 -1.60516 0.163625 
345 1 -0.128178 0.222674 2.15727 0 -0.5 -2.26551 0.025 0 0 -1.60516 0.163625 
435 1 -0.0960728 0.259976 2.16049 0 -0.5 -2.25158 0.015 0 0 -0.346714 0.0353429 
405 1 -0.038992 0.40939 2.15063 0 -0.5 -2.29405 0.015 0 0 -0.346714 0.0353429 
444 1 -0.0159467 0.455826 2.17369 0 -0.5 -2.19331 0.015 0 0 -0.346714 0.0353429 
714 1 -0.0240605 0.224326 2.18969 0 -0.5 -2.12052 0.015 0 0 -0.346714 0.0353429 
676 1 -0.132839 0.251867 2.19754 0 -0.5 -2.08392 0.015 0 0 -0.346714 0.0353429 
652 1 -0.0683105 0.256338 2.20476 0 -0.5 -2.04959 0.015 0 0 -0.346714 0.0353429 
675 1 -0.129194 0.405085 2.19593 0 -0.5 -2.09148 0.015 0 0 -0.346714 0.0353429 
634 1 -0.102181 0.444021 2.19377 0 -0.5 -2.10158 0.025 0 0 -1.60516 0.163625 
690 1 -0.0634806 0.422565 2.19273 0 -0.5 -2.10639 0.015 0 0 -0.346714 0.0353429 
669 1 -0.0318411 0.433893 2.20645 0 -0.5 -2.04155 0.015 0 0 -0.346714 0.0353429 
608 1 -0.0938106 0.190518 2.22411 -0 0 -2 0.025 0 0 0 0.163625 
682 1 -0.0469368 0.185531 2.22801 -0 0 -2 0.015 0 0 0 0.0353429 
657 1 -0.0480729 0.222592 2.23236 -0 0 -2 0.015 0 0 0 0.0353429 
735 1 -0.0832421 0.264469 2.23981 -0 0 -2 0.015 0 0 0 0.0353429 
629 1 -0.113195 0.303381 2.21047 0 -0.5 -2.02212 0.025 0 0 -1.60516 0.163625 
606 1 -0.122934 0.377365 2.22495 -0 0 -2 0.025 0 0 0 0.163625 
708 1 -0.0786991 0.414901 2.22501 -0 0 -2 0.015 0 0 0 0.0353429 
660 1 -0.0183143 0.425627 2.23401 -0 0 -2 0.015 0 0 0 0.0353429 
701 1 -0.0870486 0.472769 2.22662 -0 0 -2 0.015 0 0 0 0.0353429 
707 1 -0.0900659 0.206764 2.26791 -0 0 -2 0.015 0 0 0 0.0353429 
618 1 -0.13283 0.225849 2.26026 -0 0 -2 0.025 0 0 0 0.163625 
709 1 -0.101732 0.309231 2.25621 -0 0 -2 0.015 0 0 0 0.0353429 
649 1 -0.129761 0.339812 2.26847 -0 0 -2 0.025 0 0 0 0.163625 
750 1 -0.0862874 0.372619 2.26125 -0 0 -2 0.015 0 0 0 0.0353429 
677 1 -0.113879 0.190408 2.29459 -0 0 -2 0.015 0 0 0 0.0353429 
640 1 -0.0489559 0.223297 2.27989 -0 0 -2 0.025 0 0 0 0.163625 
680 1 -0.0791761 0.259986 2.27459 -0 0 -2 0.015 0 0 0 0.0353429 
616 1 -0.140255 0.428954 2.28025 -0 0 -2 0.025 0 0 0 0.163625 
725 1 -0.0732043 0.428899 2.28986 -0 0 -2 0.015 0 0 0 0.0353429 
712 1 -0.0372677 0.47295 2.28542 -0 0 -2 0.015 0 0 0 0.0353429 
692 1 -0.0389882 0.23636 2.32984 -0 0 -2 0.015 0 0 0 0.0353429 
736 1 -0.0864872 0.278273 2.3171 -0 0 -2 0.015 0 0 0 0.0353429 
744 1 -0.107021 0.37483 2.3026 -0 0 -2 0.015 0 0 0 0.0353429 
722 1 -0.124711 0.413708 2.32988 -0 0 -2 0.015 0 0 0 0.0353429 
685 1 -0.0969629 0.419298 2.31262 -0 0 -2 0.015 0 0 0 0.0353429 
674 1 -0.11657 0.471494 2.3272 -0 0 -2 0.015 0 0 0 0.0353429 
699 1 -0.0856858 0.473675 2.32599 -0 0 -2 0.015 0 0 0 0.0353429 
748 1 -0.0192599 0.200066 2.34607 -0 0 -2 0.015 0 0 0 0.0353429 
610 1 -0.108705 0.213129 2.33669 -0 0 -2 0.025 0 0 0 0.163625 
625 1 -0.115962 0.283889 2.34787 -0 0 -2 0.025 0 0 0 0.163625 
678 1 -0.0973357 0.337318 2.35866 -0 0 -2 0.015 0 0 0 0.0353429 
636 1 -0.149776 0.383946 2.35312 -0 0 -2 0.025 0 0 0 0.163625 
683 1 -0.0829948 0.413557 2.33916 -0 0 -2 0.015 0 0 0 0.0353429 
732 1 -0.0691875 0.449832 2.34226 -0 0 -2 0.015 0 0 0 0.0353429 
620 1 -0.0294016 0.445755 2.33502 -0 0 -2 0.025 0 0 0 0.163625 
705 1 -0.0946775 0.182879 2.3686 -0 0 -2 0.015 0 0 0 0.0353429 
637 1 -0.0618774 0.209032 2.39015 -0 0 -2 0.025 0 0 0 0.163625 
730 1 -0.0250727 0.190561 2.38576 -0 0 -2 0.015 0 0 0 0.0353429 
641 1 -0.143995 0.248499 2.37314 -0 0 -2 0.025 0 0 0 0.163625 
694 1 -0.138308 0.343846 2.38055 -0 0 -2 0.015 0 0 0 0.0353429 
733 1 -0.0833844 0.376757 2.38108 -0 0 -2 0.015 0 0 0 0.0353429 
698 1 -0.111785 0.421731 2.37455 -0 0 -2 0.015 0 0 0 0.0353429 
696 1 -0.058387 0.410183 2.36564 -0 0 -2 0.015 0 0 0 0.0353429 
648 1 -0.130879 0.464062 2.37015 -0 0 -2 0.025 0 0 0 0.163625 
644 1 -0.140738 0.186408 2.39458 -0 0 -2 0.025 0 0 0 0.163625 
729 1 -0.0894542 0.239788 2.39148 -0 0 -2 0.015 0 0 0 0.0353429 
724 1 -0.0903421 0.274729 2.40014 -0 0 -2 0.015 0 0 0 0.0353429 
745 1 -0.114925 0.311202 2.40956 -0 0 -2 0.015 0 0 0 0.0353429 
628 1 -0.0865924 0.407234 2.40801 -0 0 -2 0.025 0 0 0 0.163625 
639 1 -0.0758688 0.455316 2.39746 -0 0 -2 0.025 0 0 0 0.163625 
679 1 -0.13837 0.180668 2.43696 -0 0 -2 0.015 0 0 0 0.0353429 
691 1 -0.0734004 0.189006 2.4451 -0 0 -2 0.015 0 0 0 0.0353429 
706 1 -0.129002 0.229476 2.44081 -0 0 -2 0.015 0 0 0 0.0353429 
684 1 -0.0877228 0.214649 2.42238 -0 0 -2 0.015 0 0 0 0.0353429 
627 1 -0.14504 0.290308 2.42797 -0 0 -2 0.025 0 0 0 0.163625 
603 1 -0.121744 0.345667 2.43285 -0 0 -2 0.025 0 0 0 0.163625 
702 1 -0.149858 0.401742 2.43921 -0 0 -2 0.015 0 0 0 0.0353429 
695 1 -0.0580393 0.404144 2.44355 -0 0 -2 0.015 0 0 0 0.0353429 
673 1 -0.0172558 0.429744 2.44968 -0 0 -2 0.015 0 0 0 0.0353429 
635 1 -0.142362 0.4734 2.43718 -0 0 -2 0.025 0 0 0 0.163625 
703 1 -0.0877381 0.462891 2.43649 -0 0 -2 0.015 0 0 0 0.0353429 
728 1 -0.112468 0.204973 2.47441 -0 0 -2 0.015 0 0 0 0.0353429 
740 1 -0.0241674 0.189645 2.46076 -0 0 -2 0.015 0 0 0 0.0353429 
704 1 -0.0317726 0.220718 2.46444 -0 0 -2 0.015 0 0 0 0.0353429 
741 1 -0.142229 0.250235 2.45947 -0 0 -2 0.015 0 0 0 0.0353429 
633 1 -0.0885839 0.256976 2.45202 -0 0 -2 0.025 0 0 0 0.163625 
617 1 -0.113434 0.299985 2.47931 -0 0 -2 0.025 0 0 0 0.163625 
621 1 -0.0949278 0.379245 2.46108 -0 0 -2 0.025 0 0 0 0.163625 
622 1 -0.140441 0.405087 2.48049 -0 0 -2 0.025 0 0 0 0.163625 
651 1 -0.060053 0.444242 2.46843 -0 0 -2 0.025 0 0 0 0.163625 
731 1 -0.0916629 0.473786 2.47294 -0 0 -2 0.015 0 0 0 0.0353429 
663 1 -0.107061 0.184437 2.50102 -0 0 -2 0.015 0 0 0 0.0353429 