ITEM: TIMESTEP
71200
ITEM: NUMBER OF ATOMS
900
ITEM: BOX BOUNDS mm mm mm
-1 1
-1 1
-1.87052 2.85
ITEM: ATOMS id type x y z vx vy vz radius fx fy fz mass 
68 1 -0.0997213 -0.110729 -1.61523 0 -0.5 -8.89658 0.015 0 0 -0.346714 0.0353429 
137 1 -0.0917749 -0.0563932 -1.59396 -0.00924354 -0.479856 -8.87372 0.015 0 0 -0.346714 0.0353429 
33 1 -0.129286 0.0806047 -1.57911 0 -0.5 -8.85665 0.025 0 0 -1.60516 0.163625 
45 1 -0.0943793 -0.159762 -1.56928 0 -0.5 -8.84576 0.025 0 0 -1.60516 0.163625 
122 1 -0.067234 -0.109269 -1.56829 0.00811842 -0.517403 -8.84414 0.015 0 0 -0.346714 0.0353429 
119 1 -0.0370509 -0.170811 -1.52173 0 -0.5 -8.79289 0.015 0 0 -0.346714 0.0353429 
43 1 -0.116198 -0.00821459 -1.53521 0 -0.5 -8.80789 0.025 0 0 -1.60516 0.163625 
111 1 -0.0487783 0.1241 -1.53424 0 -0.5 -8.80682 0.015 0 0 -0.346714 0.0353429 
75 1 -0.0493142 -0.120328 -1.49375 0 -0.5 -8.76159 0.015 0 0 -0.346714 0.0353429 
78 1 -0.0422369 0.0879551 -1.50918 0 -0.5 -8.77886 0.015 0 0 -0.346714 0.0353429 
220 1 -0.00577168 -0.175423 -1.45754 -0.0669262 -0.554313 -8.71635 0.015 0 0 -0.346714 0.0353429 
89 1 -0.129145 -0.0916921 -1.48341 0 -0.5 -8.75002 0.015 0 0 -0.346714 0.0353429 
59 1 -0.0865612 0.0368678 -1.46052 0 -0.5 -8.72431 0.015 0 0 -0.346714 0.0353429 
92 1 -0.131017 0.131327 -1.43629 0 -0.5 -8.69704 0.015 0 0 -0.346714 0.0353429 
26 1 -0.016409 0.0119405 -1.38228 0.14857 -0.341553 -8.66609 0.025 0 0 -1.60516 0.163625 
98 1 -0.147127 -0.0195582 -1.34664 0 -0.5 -8.59531 0.015 0 0 -0.346714 0.0353429 
151 1 -0.0686397 0.062527 -1.34758 0 -0.5 -8.59639 0.015 0 0 -0.346714 0.0353429 
8 1 -0.104188 -0.152537 -1.31954 0 -0.5 -8.56431 0.025 0 0 -1.60516 0.163625 
3 1 -0.141317 0.0453879 -1.30711 0 -0.5 -8.55009 0.025 0 0 -1.60516 0.163625 
72 1 -0.105673 0.082796 -1.28569 0 -0.5 -8.52546 0.015 0 0 -0.346714 0.0353429 
100 1 -0.0681017 -0.084079 -1.2548 0 -0.5 -8.48985 0.015 0 0 -0.346714 0.0353429 
140 1 -0.125739 -0.0424436 -1.26253 0 -0.5 -8.49878 0.015 0 0 -0.346714 0.0353429 
118 1 -0.0372647 0.117681 -1.24666 0 -0.5 -8.48044 0.015 0 0 -0.346714 0.0353429 
40 1 -0.104474 0.134198 -1.26075 0 -0.5 -8.49672 0.025 0 0 -1.60516 0.163625 
117 1 -0.0596227 -0.140979 -1.22279 0 -0.5 -8.45277 0.015 0 0 -0.346714 0.0353429 
148 1 -0.21727 0.0229422 -1.21348 -0.171679 -0.397353 -8.50211 0.015 0 0 -0.346714 0.0353429 
51 1 -0.165961 -0.132162 -1.18193 -0.0265052 -0.519812 -8.40087 0.025 0 0 -1.60516 0.163625 
282 1 -0.0708436 -0.115405 -1.17288 -0.2609 -0.673185 -8.38069 0.015 0 0 -0.346714 0.0353429 
90 1 -0.146535 0.135667 -1.13198 0 -0.5 -8.34673 0.015 0 0 -0.346714 0.0353429 
60 1 -0.0770515 -0.132072 -1.10118 0 -0.5 -8.31043 0.015 0 0 -0.346714 0.0353429 
11 1 -0.0930228 0.0393192 -1.11471 0.022917 -0.457889 -8.33959 0.025 0 0 -1.60516 0.163625 
50 1 -0.130982 0.0923549 -1.09893 0 -0.5 -8.30778 0.025 0 0 -1.60516 0.163625 
105 1 -0.28323 0.0564328 -1.03413 -0.321192 -0.368687 -8.2233 0.015 0 0 -0.346714 0.0353429 
74 1 -0.0790012 0.0798934 -1.04818 0 -0.5 -8.24765 0.015 0 0 -0.346714 0.0353429 
44 1 -0.125916 -0.140403 -1.00962 0 -0.5 -8.20164 0.025 0 0 -1.60516 0.163625 
76 1 -0.0202065 0.10807 -1.02505 0 -0.5 -8.22008 0.015 0 0 -0.346714 0.0353429 
36 1 -0.103411 -0.0936875 -0.978361 0 -0.5 -8.16416 0.025 0 0 -1.60516 0.163625 
29 1 -0.0788351 0.122182 -0.9871 0 -0.5 -8.17466 0.025 0 0 -1.60516 0.163625 
54 1 -0.184892 -0.0670955 -0.943826 -0.0956439 -0.529683 -8.11286 0.015 0 0 -0.346714 0.0353429 
114 1 -0.0721392 -0.0634505 -0.926712 -0.00040144 -0.499666 -8.10195 0.015 0 0 -0.346714 0.0353429 
73 1 -0.0639552 -0.114233 -0.882608 0 -0.5 -8.04831 0.015 0 0 -0.346714 0.0353429 
113 1 -0.118506 0.157198 -0.891885 0 -0.5 -8.05959 0.015 0 0 -0.346714 0.0353429 
2 1 -0.110349 0.0330712 -0.874253 0 -0.5 -8.0381 0.025 0 0 -1.60516 0.163625 
146 1 -0.109965 -0.127084 -0.849946 0 -0.5 -8.00838 0.015 0 0 -0.346714 0.0353429 
88 1 -0.0666498 0.0999185 -0.826351 0 -0.5 -7.97944 0.015 0 0 -0.346714 0.0353429 
12 1 -0.0363281 0.142336 -0.852174 0 -0.5 -8.01113 0.025 0 0 -1.60516 0.163625 
57 1 -0.120673 -0.0109395 -0.810347 0 -0.5 -7.95972 0.015 0 0 -0.346714 0.0353429 
99 1 -0.146283 -0.0624829 -0.791657 0 -0.5 -7.93667 0.015 0 0 -0.346714 0.0353429 
10 1 -0.0578885 0.128027 -0.789031 0.0635655 -0.375939 -7.99336 0.025 0 0 -1.60516 0.163625 
83 1 -0.108229 -0.032854 -0.740042 0 -0.5 -7.87261 0.015 0 0 -0.346714 0.0353429 
19 1 -0.0715757 -0.0527476 -0.734465 0 -0.5 -7.86564 0.025 0 0 -1.60516 0.163625 
34 1 -0.138562 0.106511 -0.748472 0 -0.5 -7.88311 0.025 0 0 -1.60516 0.163625 
66 1 -0.0281121 -0.0751772 -0.728562 0 -0.5 -7.85829 0.015 0 0 -0.346714 0.0353429 
71 1 -0.145263 0.150198 -0.716227 0 -0.5 -7.84289 0.015 0 0 -0.346714 0.0353429 
81 1 -0.0257801 0.128505 -0.707684 0.07636 -0.438847 -7.8058 0.015 0 0 -0.346714 0.0353429 
67 1 -0.0183057 -0.119611 -0.689871 0 -0.5 -7.80983 0.015 0 0 -0.346714 0.0353429 
24 1 -0.138394 -0.0925481 -0.670914 0 -0.5 -7.78599 0.025 0 0 -1.60516 0.163625 
133 1 -0.127566 0.0239444 -0.657534 0 -0.5 -7.76911 0.015 0 0 -0.346714 0.0353429 
95 1 -0.10482 0.111312 -0.652183 0 -0.5 -7.76234 0.015 0 0 -0.346714 0.0353429 
39 1 -0.0696793 0.16101 -0.652015 0 -0.5 -7.76215 0.025 0 0 -1.60516 0.163625 
103 1 -0.135939 -0.0482777 -0.614413 0 -0.5 -7.71447 0.015 0 0 -0.346714 0.0353429 
70 1 -0.107191 -0.0660756 -0.595704 0 -0.5 -7.69063 0.015 0 0 -0.346714 0.0353429 
143 1 -0.11631 0.169682 -0.601081 0 -0.5 -7.6975 0.015 0 0 -0.346714 0.0353429 
28 1 -0.0685748 -0.0899299 -0.557285 0 -0.5 -7.64149 0.025 0 0 -1.60516 0.163625 
97 1 -0.0338223 -0.062856 -0.571057 0 -0.5 -7.65914 0.015 0 0 -0.346714 0.0353429 
115 1 -0.076478 -0.0275689 -0.57044 0 -0.5 -7.65836 0.015 0 0 -0.346714 0.0353429 
85 1 -0.13789 0.0940152 -0.566769 0 -0.5 -7.65365 0.015 0 0 -0.346714 0.0353429 
134 1 -0.137197 0.134367 -0.542261 0 -0.5 -7.62216 0.015 0 0 -0.346714 0.0353429 
77 1 -0.0297287 0.162749 -0.531526 0 -0.5 -7.60833 0.015 0 0 -0.346714 0.0353429 
120 1 -0.148569 0.183261 -0.528468 0 -0.5 -7.6044 0.015 0 0 -0.346714 0.0353429 
96 1 -0.131998 -0.0629186 -0.501992 0 -0.5 -7.57017 0.015 0 0 -0.346714 0.0353429 
126 1 -0.12776 0.0120151 -0.519896 -0.0288748 -0.539424 -7.57699 0.015 0 0 -0.346714 0.0353429 
38 1 -0.121616 -0.0218121 -0.471112 0 -0.5 -7.53004 0.025 0 0 -1.60516 0.163625 
130 1 -0.0642546 -0.0275593 -0.413648 0 -0.5 -7.4548 0.015 0 0 -0.346714 0.0353429 
23 1 -0.134189 0.114519 -0.414986 0 -0.5 -7.45657 0.025 0 0 -1.60516 0.163625 
150 1 -0.100106 -0.0507931 -0.380124 0 -0.5 -7.41056 0.015 0 0 -0.346714 0.0353429 
18 1 -0.106015 0.179686 -0.37828 0 -0.5 -7.40811 0.025 0 0 -1.60516 0.163625 
4 1 -0.0330873 0.192857 -0.379452 0 -0.5 -7.40968 0.025 0 0 -1.60516 0.163625 
31 1 -0.140814 -0.0851227 -0.35853 0 -0.5 -7.38191 0.025 0 0 -1.60516 0.163625 
106 1 -0.154652 0.323409 -0.366009 -0.0998962 -0.230395 -7.49065 0.015 0 0 -0.346714 0.0353429 
110 1 -0.0868918 -0.0955835 -0.319614 0 -0.5 -7.33002 0.015 0 0 -0.346714 0.0353429 
93 1 -0.0244706 -0.0838422 -0.299934 0 -0.5 -7.30363 0.015 0 0 -0.346714 0.0353429 
17 1 -0.134634 0.0300265 -0.290011 0 -0.5 -7.29029 0.025 0 0 -1.60516 0.163625 
136 1 -0.0832352 0.123008 -0.294821 0 -0.5 -7.29676 0.015 0 0 -0.346714 0.0353429 
30 1 -0.0481876 0.150857 -0.283377 0 -0.5 -7.28136 0.025 0 0 -1.60516 0.163625 
109 1 -0.0676248 0.19808 -0.284918 0 -0.5 -7.28342 0.015 0 0 -0.346714 0.0353429 
1 1 -0.153029 0.419249 -0.25294 -0.021394 -0.0706631 -7.35561 0.025 0 0 -1.60516 0.163625 
108 1 -0.089121 -0.0631765 -0.223637 0 -0.5 -7.20043 0.015 0 0 -0.346714 0.0353429 
69 1 -0.020474 -0.0429175 -0.191699 0 -0.5 -7.15677 0.015 0 0 -0.346714 0.0353429 
149 1 -0.0123774 0.0562662 -0.173211 0.199959 -0.45766 -7.29037 0.015 0 0 -0.346714 0.0353429 
35 1 -0.146938 0.130792 -0.182194 0 -0.5 -7.14373 0.025 0 0 -1.60516 0.163625 
102 1 -0.11709 -0.0631005 -0.138077 0 -0.5 -7.0829 0.015 0 0 -0.346714 0.0353429 
139 1 -0.104092 -0.00542801 -0.1383 0 -0.5 -7.0832 0.015 0 0 -0.346714 0.0353429 
144 1 -0.0691235 -0.00252589 -0.139634 0 -0.5 -7.08506 0.015 0 0 -0.346714 0.0353429 
22 1 -0.102489 0.0623065 -0.145523 0 -0.5 -7.0932 0.025 0 0 -1.60516 0.163625 
14 1 -0.0571303 -0.0710245 -0.122737 0 -0.5 -7.06162 0.025 0 0 -1.60516 0.163625 
141 1 -0.136875 0.0102642 -0.101807 0 -0.5 -7.03248 0.015 0 0 -0.346714 0.0353429 
55 1 -0.096001 0.168403 -0.116051 -7.52477e-06 -0.49998 -7.05233 0.015 0 0 -0.346714 0.0353429 
21 1 -0.0470047 0.2135 -0.0811832 0 -0.5 -7.00364 0.025 0 0 -1.60516 0.163625 
87 1 -0.113676 0.131588 -0.0602767 0 -0.5 -6.97431 0.015 0 0 -0.346714 0.0353429 
94 1 -0.291808 0.19164 -0.0698886 -0.356499 -0.190573 -7.03987 0.015 0 0 -0.346714 0.0353429 
107 1 -0.141609 -0.0740523 -0.0229623 0 -0.5 -6.92163 0.015 0 0 -0.346714 0.0353429 
112 1 -0.073338 0.00927873 0.013921 0 -0.5 -6.86914 0.015 0 0 -0.346714 0.0353429 
84 1 -0.116406 0.0897863 0.00904886 0 -0.5 -6.87611 0.015 0 0 -0.346714 0.0353429 
147 1 -0.100309 0.201431 -0.000595458 0 -0.5 -6.88984 0.015 0 0 -0.346714 0.0353429 
142 1 -0.0724928 -0.0492522 0.0444624 0 -0.5 -6.82539 0.015 0 0 -0.346714 0.0353429 
47 1 -0.140465 0.17345 0.0445983 0 -0.5 -6.8252 0.025 0 0 -1.60516 0.163625 
145 1 -0.0934491 0.166113 0.0474713 0 -0.5 -6.82108 0.015 0 0 -0.346714 0.0353429 
6 1 -0.0605504 0.0066537 0.0761396 0.101461 -0.428163 -6.78457 0.025 0 0 -1.60516 0.163625 
80 1 -0.102893 0.136893 0.0697931 0 -0.5 -6.7889 0.015 0 0 -0.346714 0.0353429 
32 1 -0.179136 -0.0751626 0.114375 -0.0613285 -0.540948 -6.72163 0.025 0 0 -1.60516 0.163625 
138 1 -0.0317395 -0.0466844 0.137507 0 -0.5 -6.69031 0.015 0 0 -0.346714 0.0353429 
135 1 -0.140472 0.0188926 0.110669 0 -0.5 -6.72955 0.015 0 0 -0.346714 0.0353429 
15 1 -0.0722581 0.115207 0.127157 0.0430154 -0.390763 -6.67737 0.025 0 0 -1.60516 0.163625 
62 1 -0.0849655 0.226406 0.11028 0 -0.5 -6.73014 0.015 0 0 -0.346714 0.0353429 
280 1 -0.111082 0.436542 0.121819 -0.323138 -0.0374805 -6.79222 0.015 0 0 -0.346714 0.0353429 
128 1 -0.145291 0.103677 0.139858 0 -0.5 -6.68687 0.015 0 0 -0.346714 0.0353429 
121 1 -0.0679495 0.208078 0.168192 0 -0.5 -6.64518 0.015 0 0 -0.346714 0.0353429 
129 1 -0.0553418 -0.0228006 0.220241 0 -0.5 -6.56788 0.015 0 0 -0.346714 0.0353429 
61 1 -0.0231802 -0.0530652 0.257006 0 -0.5 -6.51275 0.015 0 0 -0.346714 0.0353429 
79 1 -0.0179342 -0.0190157 0.257129 0 -0.5 -6.51255 0.015 0 0 -0.346714 0.0353429 
13 1 -0.146779 0.0598211 0.240962 0 -0.5 -6.53688 0.025 0 0 -1.60516 0.163625 
101 1 -0.102489 0.0698245 0.235193 0 -0.5 -6.54551 0.015 0 0 -0.346714 0.0353429 
91 1 -0.124131 0.166132 0.257782 0 -0.5 -6.51157 0.015 0 0 -0.346714 0.0353429 
37 1 -0.0716655 0.172665 0.234407 0 -0.5 -6.54669 0.025 0 0 -1.60516 0.163625 
46 1 -0.032303 0.234569 0.241806 0 -0.5 -6.5356 0.025 0 0 -1.60516 0.163625 
52 1 -0.100497 -0.0375105 0.268703 0 -0.5 -6.49509 0.015 0 0 -0.346714 0.0353429 
5 1 -0.137704 -0.00958819 0.283887 0 -0.5 -6.47213 0.025 0 0 -1.60516 0.163625 
7 1 -0.0712578 0.0294494 0.288608 0 -0.5 -6.46497 0.025 0 0 -1.60516 0.163625 
20 1 -0.124339 0.117888 0.279164 0 -0.5 -6.4793 0.025 0 0 -1.60516 0.163625 
86 1 -0.142939 0.159059 0.338347 0 -0.5 -6.38904 0.015 0 0 -0.346714 0.0353429 
9 1 -0.0320364 0.193159 0.343206 0 -0.5 -6.38159 0.025 0 0 -1.60516 0.163625 
58 1 -0.0969698 0.0638907 0.362934 0 -0.5 -6.35118 0.015 0 0 -0.346714 0.0353429 
124 1 -0.136447 0.189377 0.362752 0 -0.5 -6.35147 0.015 0 0 -0.346714 0.0353429 
41 1 -0.107908 0.244758 0.378725 0 -0.5 -6.32675 0.025 0 0 -1.60516 0.163625 
65 1 -0.147981 -0.0329033 0.382383 0 -0.5 -6.32106 0.015 0 0 -0.346714 0.0353429 
104 1 -0.138444 0.131217 0.435199 0 -0.5 -6.23856 0.015 0 0 -0.346714 0.0353429 
131 1 -0.025873 0.23204 0.421698 0 -0.5 -6.25975 0.015 0 0 -0.346714 0.0353429 
132 1 -0.0234712 0.000168148 0.461636 0 -0.5 -6.19687 0.015 0 0 -0.346714 0.0353429 
48 1 -0.144727 0.057852 0.460509 0 -0.5 -6.19863 0.025 0 0 -1.60516 0.163625 
53 1 -0.106432 0.10234 0.463495 0 -0.5 -6.19392 0.015 0 0 -0.346714 0.0353429 
49 1 -0.0613084 -0.0222895 0.48941 0 -0.5 -6.15272 0.025 0 0 -1.60516 0.163625 
16 1 -0.129915 0.201079 0.493787 0 -0.5 -6.14576 0.025 0 0 -1.60516 0.163625 
27 1 -0.0637137 0.227885 0.4947 0 -0.5 -6.14428 0.025 0 0 -1.60516 0.163625 
82 1 -0.0851821 0.191627 0.502687 0 -0.5 -6.13153 0.015 0 0 -0.346714 0.0353429 
63 1 -0.147823 0.257713 0.515772 0 -0.5 -6.11054 0.015 0 0 -0.346714 0.0353429 
25 1 -0.104447 0.0117853 0.556022 0 -0.5 -6.04559 0.025 0 0 -1.60516 0.163625 
127 1 -0.0304133 0.0236212 0.540205 0 -0.5 -6.0712 0.015 0 0 -0.346714 0.0353429 
56 1 -0.11556 0.255119 0.540015 0 -0.5 -6.07149 0.015 0 0 -0.346714 0.0353429 
42 1 -0.132916 0.104796 0.576149 0 -0.5 -6.01283 0.025 0 0 -1.60516 0.163625 
123 1 -0.11925 0.161492 0.581254 0 -0.5 -6.00449 0.015 0 0 -0.346714 0.0353429 
361 1 -0.0655065 0.0031594 0.620322 0 -0.5 -5.94033 0.015 0 0 -0.346714 0.0353429 
64 1 -0.145219 0.225177 0.600597 0 -0.5 -5.9728 0.015 0 0 -0.346714 0.0353429 
125 1 -0.0960051 0.217127 0.603182 0 -0.5 -5.96859 0.015 0 0 -0.346714 0.0353429 
392 1 -0.0201822 -0.0246234 0.623772 0 -0.5 -5.93464 0.015 0 0 -0.346714 0.0353429 
375 1 -0.132504 0.0402129 0.633365 0 -0.5 -5.91875 0.015 0 0 -0.346714 0.0353429 
391 1 -0.0665259 0.20219 0.622217 0 -0.5 -5.93719 0.015 0 0 -0.346714 0.0353429 
353 1 -0.0778865 0.0565101 0.659776 0 -0.5 -5.8748 0.015 0 0 -0.346714 0.0353429 
432 1 -0.110656 0.116023 0.676596 0 -0.5 -5.84665 0.015 0 0 -0.346714 0.0353429 
423 1 -0.035066 0.220352 0.674326 0 -0.5 -5.85047 0.015 0 0 -0.346714 0.0353429 
370 1 -0.0476722 0.274061 0.659736 0 -0.5 -5.8749 0.015 0 0 -0.346714 0.0353429 
449 1 -0.121601 -0.0190298 0.691658 0 -0.5 -5.82134 0.015 0 0 -0.346714 0.0353429 
348 1 -0.0491949 -0.00994249 0.716083 -0.0150753 -0.514502 -5.77719 0.025 0 0 -1.60516 0.163625 
409 1 -0.1116 0.0882793 0.725076 0 -0.5 -5.76473 0.015 0 0 -0.346714 0.0353429 
434 1 -0.110177 0.248235 0.722141 0 -0.5 -5.76974 0.015 0 0 -0.346714 0.0353429 
304 1 -0.147639 0.214299 0.757664 0 -0.5 -5.70901 0.025 0 0 -1.60516 0.163625 
414 1 -0.12165 0.158412 0.799132 0 -0.5 -5.6373 0.015 0 0 -0.346714 0.0353429 
327 1 -0.047146 0.251396 0.792487 0 -0.5 -5.64888 0.025 0 0 -1.60516 0.163625 
368 1 -0.0426125 0.0261031 0.820937 0 -0.5 -5.59924 0.015 0 0 -0.346714 0.0353429 
416 1 -0.148865 0.179752 0.814548 0 -0.5 -5.61042 0.015 0 0 -0.346714 0.0353429 
422 1 -0.0856494 0.242628 0.818707 0 -0.5 -5.60316 0.015 0 0 -0.346714 0.0353429 
307 1 -0.141488 0.0203164 0.85508 0 -0.5 -5.5391 0.025 0 0 -1.60516 0.163625 
328 1 -0.101567 0.0513596 0.840927 0 -0.5 -5.56412 0.025 0 0 -1.60516 0.163625 
342 1 -0.0942786 0.202007 0.842417 0 -0.5 -5.56147 0.025 0 0 -1.60516 0.163625 
441 1 -0.0895132 0.280957 0.855571 0 -0.5 -5.53822 0.015 0 0 -0.346714 0.0353429 
440 1 -0.074831 0.00263325 0.871537 0 -0.5 -5.50987 0.015 0 0 -0.346714 0.0353429 
352 1 -0.144025 0.239939 0.884854 0 -0.5 -5.48613 0.015 0 0 -0.346714 0.0353429 
330 1 -0.125578 0.296028 0.890271 0 -0.5 -5.47642 0.025 0 0 -1.60516 0.163625 
388 1 -0.0545692 0.0666855 0.906054 0 -0.5 -5.44807 0.015 0 0 -0.346714 0.0353429 
323 1 -0.131477 0.135813 0.903613 0 -0.5 -5.45248 0.025 0 0 -1.60516 0.163625 
406 1 -0.0920408 0.239666 0.916284 0 -0.5 -5.42963 0.015 0 0 -0.346714 0.0353429 
331 1 -0.138106 0.00783097 0.981643 0 -0.5 -5.31024 0.025 0 0 -1.60516 0.163625 
418 1 -0.0554251 0.0129403 0.965279 0 -0.5 -5.34035 0.015 0 0 -0.346714 0.0353429 
395 1 -0.110093 0.0638721 0.973877 0 -0.5 -5.32456 0.015 0 0 -0.346714 0.0353429 
318 1 -0.126425 0.213158 0.962351 0 -0.5 -5.34575 0.025 0 0 -1.60516 0.163625 
336 1 -0.025747 0.246523 0.972802 0 -0.5 -5.32652 0.025 0 0 -1.60516 0.163625 
313 1 -0.0392615 0.0516895 0.998059 0 -0.5 -5.27983 0.025 0 0 -1.60516 0.163625 
374 1 -0.133879 0.273467 1.00095 0 -0.5 -5.27443 0.015 0 0 -0.346714 0.0353429 
315 1 -0.0970947 0.118406 1.02709 0 -0.5 -5.22558 0.025 0 0 -1.60516 0.163625 
407 1 -0.0713596 0.246089 1.02888 0 -0.5 -5.22224 0.015 0 0 -0.346714 0.0353429 
310 1 -0.0919271 0.283993 1.02349 0 -0.5 -5.23235 0.025 0 0 -1.60516 0.163625 
445 1 -0.0938501 0.188643 1.04637 0 -0.5 -5.18928 0.015 0 0 -0.346714 0.0353429 
386 1 -0.118095 0.25711 1.07038 0 -0.5 -5.14366 0.015 0 0 -0.346714 0.0353429 
377 1 -0.128279 0.0357203 1.07533 0 -0.5 -5.13425 0.015 0 0 -0.346714 0.0353429 
344 1 -0.147144 0.189445 1.09536 0 -0.5 -5.09579 0.025 0 0 -1.60516 0.163625 
302 1 -0.0567477 0.0333163 1.11881 0 -0.5 -5.05047 0.025 0 0 -1.60516 0.163625 
401 1 -0.0913429 0.0647804 1.11633 0 -0.5 -5.05528 0.015 0 0 -0.346714 0.0353429 
314 1 -0.136534 0.101236 1.12999 0 -0.5 -5.02869 0.025 0 0 -1.60516 0.163625 
439 1 -0.132801 0.151897 1.11259 0 -0.5 -5.06253 0.015 0 0 -0.346714 0.0353429 
355 1 -0.0483468 0.0807585 1.15646 0 -0.5 -4.9768 0.015 0 0 -0.346714 0.0353429 
413 1 -0.0512121 0.250816 1.14878 0 -0.5 -4.9919 0.015 0 0 -0.346714 0.0353429 
442 1 -0.149932 0.310171 1.15044 0 -0.5 -4.98867 0.015 0 0 -0.346714 0.0353429 
408 1 -0.087028 0.318439 1.16173 0 -0.5 -4.9664 0.015 0 0 -0.346714 0.0353429 
431 1 -0.13363 0.0616506 1.16555 0 -0.5 -4.95884 0.015 0 0 -0.346714 0.0353429 
446 1 -0.116317 0.218626 1.19223 0 -0.5 -4.90577 0.015 0 0 -0.346714 0.0353429 
354 1 -0.0927402 0.249498 1.16357 0 -0.5 -4.96277 0.015 0 0 -0.346714 0.0353429 
382 1 -0.104244 0.342727 1.17928 0.026541 -0.439017 -5.00199 0.015 0 0 -0.346714 0.0353429 
411 1 -0.0485728 0.301056 1.20208 0 -0.5 -4.88605 0.015 0 0 -0.346714 0.0353429 
427 1 -0.090412 0.40065 1.20909 0.0988458 -0.172977 -5.03922 0.015 0 0 -0.346714 0.0353429 
399 1 -0.074527 0.0840481 1.24431 0 -0.5 -4.80051 0.015 0 0 -0.346714 0.0353429 
436 1 -0.0854574 0.138951 1.24349 0 -0.5 -4.80218 0.015 0 0 -0.346714 0.0353429 
341 1 -0.148816 0.252228 1.24685 0 -0.5 -4.79531 0.025 0 0 -1.60516 0.163625 
389 1 -0.0230912 0.325676 1.2483 0 -0.5 -4.79237 0.015 0 0 -0.346714 0.0353429 
324 1 -0.0498553 0.0387032 1.2709 0 -0.5 -4.74587 0.025 0 0 -1.60516 0.163625 
350 1 -0.147794 0.0713949 1.25876 0 -0.5 -4.77088 0.025 0 0 -1.60516 0.163625 
437 1 -0.0723044 0.115232 1.28024 0 -0.5 -4.72654 0.015 0 0 -0.346714 0.0353429 
335 1 -0.126459 0.132418 1.25849 0 -0.5 -4.77147 0.025 0 0 -1.60516 0.163625 
385 1 -0.0696212 0.261365 1.26687 0 -0.5 -4.75421 0.015 0 0 -0.346714 0.0353429 
384 1 -0.179942 0.347289 1.26035 -0.135564 -0.440896 -4.78531 0.015 0 0 -0.346714 0.0353429 
394 1 -0.145405 0.290684 1.30967 0 -0.5 -4.66503 0.015 0 0 -0.346714 0.0353429 
358 1 -0.127277 0.0627924 1.34126 0 -0.5 -4.59813 0.015 0 0 -0.346714 0.0353429 
367 1 -0.106717 0.0958308 1.32371 0 -0.5 -4.63541 0.015 0 0 -0.346714 0.0353429 
424 1 -0.13682 0.327288 1.33166 -0.0730123 -0.390635 -4.62666 0.015 0 0 -0.346714 0.0353429 
426 1 -0.0179373 0.320964 1.32321 0 -0.5 -4.63649 0.015 0 0 -0.346714 0.0353429 
319 1 -0.0687817 0.342025 1.33799 0 -0.5 -4.60509 0.025 0 0 -1.60516 0.163625 
376 1 -0.0824761 0.107772 1.36627 0 -0.5 -4.54447 0.015 0 0 -0.346714 0.0353429 
326 1 -0.145564 0.192454 1.34338 0 -0.5 -4.59362 0.025 0 0 -1.60516 0.163625 
433 1 -0.118613 0.0486652 1.39644 0 -0.5 -4.47884 0.015 0 0 -0.346714 0.0353429 
420 1 -0.037203 0.0568256 1.40084 0 -0.5 -4.46923 0.015 0 0 -0.346714 0.0353429 
402 1 -0.101682 0.092287 1.40507 0 -0.5 -4.45991 0.015 0 0 -0.346714 0.0353429 
363 1 -0.0911777 0.169327 1.43258 0 -0.5 -4.39899 0.015 0 0 -0.346714 0.0353429 
360 1 -0.116599 0.193221 1.43065 0 -0.5 -4.4033 0.015 0 0 -0.346714 0.0353429 
306 1 -0.116739 0.270034 1.40369 0 -0.5 -4.46295 0.025 0 0 -1.60516 0.163625 
371 1 -0.0449321 0.320104 1.42866 0 -0.5 -4.40772 0.015 0 0 -0.346714 0.0353429 
412 1 -0.0937388 0.340584 1.4106 0 -0.5 -4.44774 0.015 0 0 -0.346714 0.0353429 
397 1 -0.0557758 0.281618 1.43705 0 -0.5 -4.38898 0.015 0 0 -0.346714 0.0353429 
322 1 -0.131733 0.0795637 1.46876 0 -0.5 -4.31756 0.025 0 0 -1.60516 0.163625 
373 1 -0.136858 0.226184 1.47935 0 -0.5 -4.29343 0.015 0 0 -0.346714 0.0353429 
396 1 -0.0958984 0.24666 1.47118 0 -0.5 -4.31207 0.015 0 0 -0.346714 0.0353429 
369 1 -0.138958 0.284563 1.4826 0 -0.5 -4.28598 0.015 0 0 -0.346714 0.0353429 
381 1 -0.0827007 0.315114 1.46483 0 -0.5 -4.32649 0.015 0 0 -0.346714 0.0353429 
383 1 -0.0262689 0.302803 1.48386 0 -0.5 -4.28313 0.015 0 0 -0.346714 0.0353429 
308 1 -0.0793373 0.0944575 1.5097 -0.0168546 -0.516386 -4.22193 0.025 0 0 -1.60516 0.163625 
438 1 -0.0987495 0.178333 1.51102 0 -0.5 -4.22044 0.015 0 0 -0.346714 0.0353429 
356 1 -0.111476 0.221564 1.51914 0 -0.5 -4.20151 0.015 0 0 -0.346714 0.0353429 
340 1 -0.149237 0.349237 1.51856 0 -0.5 -4.20288 0.025 0 0 -1.60516 0.163625 
415 1 -0.127182 0.13013 1.53475 0 -0.5 -4.16492 0.015 0 0 -0.346714 0.0353429 
343 1 -0.140775 0.188899 1.54294 0 -0.5 -4.14559 0.025 0 0 -1.60516 0.163625 
443 1 -0.0906469 0.276658 1.5324 0 -0.5 -4.17041 0.015 0 0 -0.346714 0.0353429 
349 1 -0.116564 0.308594 1.54753 0 -0.5 -4.13471 0.025 0 0 -1.60516 0.163625 
351 1 -0.0409452 0.307112 1.5529 0 -0.5 -4.12195 0.015 0 0 -0.346714 0.0353429 
390 1 -0.0988461 0.0905899 1.57797 0 -0.5 -4.06182 0.015 0 0 -0.346714 0.0353429 
448 1 -0.0329565 0.09957 1.60353 0 -0.5 -3.99962 0.015 0 0 -0.346714 0.0353429 
347 1 -0.0548177 0.13689 1.61016 0 -0.5 -3.98334 0.025 0 0 -1.60516 0.163625 
346 1 -0.152855 0.398625 1.61329 -0.0151472 -0.325165 -4.0195 0.025 0 0 -1.60516 0.163625 
419 1 -0.111609 0.0815188 1.63871 0 -0.5 -3.91241 0.015 0 0 -0.346714 0.0353429 
362 1 -0.0154426 0.131609 1.6354 0 -0.5 -3.92065 0.015 0 0 -0.346714 0.0353429 
378 1 -0.121409 0.185198 1.61791 0 -0.5 -3.96421 0.015 0 0 -0.346714 0.0353429 
312 1 -0.134707 0.244718 1.61919 0 -0.5 -3.96107 0.025 0 0 -1.60516 0.163625 
359 1 -0.107325 0.289399 1.62771 0 -0.5 -3.93988 0.015 0 0 -0.346714 0.0353429 
303 1 -0.0551599 0.308479 1.63589 0 -0.5 -3.91947 0.025 0 0 -1.60516 0.163625 
417 1 -0.0160313 0.344054 1.61917 0 -0.5 -3.96107 0.015 0 0 -0.346714 0.0353429 
421 1 -0.0930175 0.161542 1.65498 0 -0.5 -3.8714 0.015 0 0 -0.346714 0.0353429 
334 1 -0.103439 0.344448 1.64803 0 -0.5 -3.88896 0.025 0 0 -1.60516 0.163625 
325 1 -0.117824 0.205025 1.69723 0 -0.5 -3.76281 0.025 0 0 -1.60516 0.163625 
365 1 -0.140844 0.266845 1.69473 0.0322739 -0.84426 -3.68422 0.015 0 0 -0.346714 0.0353429 
309 1 -0.144284 0.120031 1.73151 0 -0.5 -3.67236 0.025 0 0 -1.60516 0.163625 
320 1 -0.0648735 0.120929 1.71368 0 -0.5 -3.71964 0.025 0 0 -1.60516 0.163625 
372 1 -0.0702168 0.304237 1.71993 0 -0.5 -3.70316 0.015 0 0 -0.346714 0.0353429 
447 1 -0.122284 0.385789 1.7147 0 -0.5 -3.717 0.015 0 0 -0.346714 0.0353429 
338 1 -0.0583644 0.373556 1.7337 0 -0.5 -3.66647 0.025 0 0 -1.60516 0.163625 
379 1 -0.0327871 0.122329 1.76412 0 -0.5 -3.58417 0.015 0 0 -0.346714 0.0353429 
430 1 -0.123083 0.167393 1.74352 0 -0.5 -3.64008 0.015 0 0 -0.346714 0.0353429 
403 1 -0.0833248 0.173397 1.74706 0 -0.5 -3.63057 0.015 0 0 -0.346714 0.0353429 
387 1 -0.0901615 0.282452 1.7354 0 -0.5 -3.66196 0.015 0 0 -0.346714 0.0353429 
393 1 -0.015571 0.344279 1.75985 0 -0.5 -3.59584 0.015 0 0 -0.346714 0.0353429 
316 1 -0.0983119 0.106111 1.80361 0 -0.5 -3.47439 0.025 0 0 -1.60516 0.163625 
364 1 -0.0453235 0.136807 1.81774 0 -0.5 -3.43427 0.015 0 0 -0.346714 0.0353429 
321 1 -0.126579 0.177251 1.8189 0 -0.5 -3.43094 0.025 0 0 -1.60516 0.163625 
357 1 -0.0584785 0.171214 1.79636 0 -0.5 -3.4948 0.015 0 0 -0.346714 0.0353429 
410 1 -0.145474 0.226536 1.82418 0 -0.5 -3.41583 0.015 0 0 -0.346714 0.0353429 
333 1 -0.0978849 0.239337 1.82003 0 -0.5 -3.4277 0.025 0 0 -1.60516 0.163625 
380 1 -0.127355 0.281976 1.81209 0 -0.5 -3.45036 0.015 0 0 -0.346714 0.0353429 
301 1 -0.0866235 0.344541 1.80526 0.012148 -0.512208 -3.46977 0.025 0 0 -1.60516 0.163625 
428 1 -0.0387226 0.356002 1.8109 0 -0.5 -3.45379 0.015 0 0 -0.346714 0.0353429 
329 1 -0.125525 0.383765 1.80088 -0.0138001 -0.485947 -3.48218 0.025 0 0 -1.60516 0.163625 
450 1 -0.0322061 0.400898 1.81233 0 -0.5 -3.44967 0.015 0 0 -0.346714 0.0353429 
337 1 -0.142368 0.322838 1.83696 0 -0.5 -3.37894 0.025 0 0 -1.60516 0.163625 
332 1 -0.0814262 0.168266 1.88219 0 -0.5 -3.24494 0.025 0 0 -1.60516 0.163625 
425 1 -0.074083 0.114787 1.89872 0 -0.5 -3.19461 0.015 0 0 -0.346714 0.0353429 
311 1 -0.0354402 0.130368 1.91096 0 -0.5 -3.15675 0.025 0 0 -1.60516 0.163625 
400 1 -0.135353 0.211905 1.88645 0 -0.5 -3.23209 0.015 0 0 -0.346714 0.0353429 
317 1 -0.129905 0.254055 1.90699 0 -0.5 -3.16911 0.025 0 0 -1.60516 0.163625 
366 1 -0.144217 0.331022 1.90422 0 -0.5 -3.17764 0.015 0 0 -0.346714 0.0353429 
339 1 -0.0802774 0.37666 1.8981 0 -0.5 -3.19648 0.025 0 0 -1.60516 0.163625 
405 1 -0.038992 0.36539 1.91077 0 -0.5 -3.15733 0.015 0 0 -0.346714 0.0353429 
305 1 -0.0452536 0.413472 1.89871 0 -0.5 -3.19461 0.025 0 0 -1.60516 0.163625 
544 1 -0.0248198 0.458415 1.9003 -0.39021 -0.130746 -3.27805 0.015 0 0 -0.346714 0.0353429 
404 1 -0.119976 0.135844 1.92386 0 -0.5 -3.11643 0.015 0 0 -0.346714 0.0353429 
345 1 -0.128178 0.178674 1.91992 0 -0.5 -3.12879 0.025 0 0 -1.60516 0.163625 
435 1 -0.0960728 0.215976 1.92437 0 -0.5 -3.11486 0.015 0 0 -0.346714 0.0353429 
444 1 -0.0159467 0.411826 1.9427 0 -0.5 -3.05659 0.015 0 0 -0.346714 0.0353429 
714 1 -0.0240605 0.180326 1.9651 0 -0.5 -2.9838 0.015 0 0 -0.346714 0.0353429 
675 1 -0.132117 0.373647 1.96078 -0.0349785 -0.349711 -3.11168 0.015 0 0 -0.346714 0.0353429 
690 1 -0.0634806 0.378565 1.96938 0 -0.5 -2.96967 0.015 0 0 -0.346714 0.0353429 
634 1 -0.102181 0.400021 1.97085 0 -0.5 -2.96486 0.025 0 0 -1.60516 0.163625 
676 1 -0.132839 0.207867 1.97617 0 -0.5 -2.9472 0.015 0 0 -0.346714 0.0353429 
652 1 -0.0683105 0.212338 1.98641 0 -0.5 -2.91287 0.015 0 0 -0.346714 0.0353429 
629 1 -0.113195 0.259381 1.99454 0 -0.5 -2.8854 0.025 0 0 -1.60516 0.163625 
669 1 -0.0318411 0.389893 1.98881 0 -0.5 -2.90483 0.015 0 0 -0.346714 0.0353429 
608 1 -0.0938106 0.148793 2.01396 0 -0.5 -2.8186 0.025 0 0 -1.60516 0.163625 
682 1 -0.0469368 0.144781 2.01943 0 -0.5 -2.79947 0.015 0 0 -0.346714 0.0353429 
657 1 -0.0480729 0.182927 2.02549 0 -0.5 -2.77818 0.015 0 0 -0.346714 0.0353429 
735 1 -0.0832421 0.226669 2.03578 0 -0.5 -2.74159 0.015 0 0 -0.346714 0.0353429 
606 1 -0.122759 0.33517 2.01586 0.00210743 -0.508228 -2.80573 0.025 0 0 -1.60516 0.163625 
708 1 -0.0786991 0.373401 2.01522 0 -0.5 -2.81418 0.015 0 0 -0.346714 0.0353429 
660 1 -0.0183143 0.386377 2.02778 0 -0.5 -2.77004 0.015 0 0 -0.346714 0.0353429 
701 1 -0.0870486 0.431674 2.01749 0 -0.5 -2.80623 0.015 0 0 -0.346714 0.0353429 
618 1 -0.13283 0.193164 2.06331 0 -0.5 -2.64123 0.025 0 0 -1.60516 0.163625 
709 1 -0.101732 0.275531 2.05793 0 -0.5 -2.66114 0.015 0 0 -0.346714 0.0353429 
750 1 -0.0862874 0.340179 2.06461 0 -0.5 -2.63642 0.015 0 0 -0.346714 0.0353429 
707 1 -0.0900659 0.175989 2.07333 0 -0.5 -2.60376 0.015 0 0 -0.346714 0.0353429 
640 1 -0.0489559 0.195517 2.08875 0 -0.5 -2.54499 0.025 0 0 -1.60516 0.163625 
680 1 -0.0791761 0.230881 2.08198 0 -0.5 -2.57099 0.015 0 0 -0.346714 0.0353429 
649 1 -0.129761 0.309177 2.07406 0 -0.5 -2.60101 0.025 0 0 -1.60516 0.163625 
616 1 -0.140255 0.401264 2.0892 0 -0.5 -2.54323 0.025 0 0 -1.60516 0.163625 
712 1 -0.0372677 0.44655 2.09575 0 -0.5 -2.51792 0.015 0 0 -0.346714 0.0353429 
677 1 -0.113879 0.166303 2.1072 0 -0.5 -2.47289 0.015 0 0 -0.346714 0.0353429 
744 1 -0.107021 0.352725 2.11701 0 -0.5 -2.43365 0.015 0 0 -0.346714 0.0353429 
725 1 -0.0732043 0.403614 2.10132 0 -0.5 -2.49604 0.015 0 0 -0.346714 0.0353429 
692 1 -0.0389882 0.22107 2.14926 0 -0.5 -2.29994 0.015 0 0 -0.346714 0.0353429 
736 1 -0.0864872 0.259793 2.1344 0 -0.5 -2.36253 0.015 0 0 -0.346714 0.0353429 
722 1 -0.124711 0.398428 2.14931 0 -0.5 -2.29974 0.015 0 0 -0.346714 0.0353429 
685 1 -0.0969629 0.399703 2.12909 0 -0.5 -2.3844 0.015 0 0 -0.346714 0.0353429 
620 1 -0.0294016 0.431755 2.15517 0 -0.5 -2.27463 0.025 0 0 -1.60516 0.163625 
674 1 -0.11657 0.455544 2.14621 0 -0.5 -2.31289 0.015 0 0 -0.346714 0.0353429 
699 1 -0.0856858 0.45742 2.14481 0 -0.5 -2.31887 0.015 0 0 -0.346714 0.0353429 
610 1 -0.108705 0.199549 2.15707 0 -0.5 -2.26639 0.025 0 0 -1.60516 0.163625 
748 1 -0.0192599 0.188831 2.1676 0 -0.5 -2.22038 0.015 0 0 -0.346714 0.0353429 
625 1 -0.113073 0.276524 2.16701 0.250947 -0.205125 -2.43581 0.025 0 0 -1.60516 0.163625 
678 1 -0.0973357 0.329233 2.18138 0 -0.5 -2.15858 0.015 0 0 -0.346714 0.0353429 
636 1 -0.149776 0.374476 2.17536 0 -0.5 -2.18575 0.025 0 0 -1.60516 0.163625 
683 1 -0.0829948 0.400592 2.15986 0 -0.5 -2.25432 0.015 0 0 -0.346714 0.0353429 
732 1 -0.0691875 0.437647 2.16335 0 -0.5 -2.23902 0.015 0 0 -0.346714 0.0353429 
705 1 -0.0946775 0.177279 2.19199 0 -0.5 -2.10982 0.015 0 0 -0.346714 0.0353429 
637 1 -0.0618774 0.208817 2.21415 0 -0.5 -2.00417 0.025 0 0 -1.60516 0.163625 
730 1 -0.0250727 0.189246 2.20972 0 -0.5 -2.02575 0.015 0 0 -0.346714 0.0353429 
729 1 -0.0894542 0.239788 2.21548 -0 0 -2 0.015 0 0 0 0.0353429 
641 1 -0.144137 0.243893 2.19686 -0.0165282 -0.51578 -2.07403 0.025 0 0 -1.60516 0.163625 
694 1 -0.138308 0.341231 2.20442 0 -0.5 -2.05126 0.015 0 0 -0.346714 0.0353429 
733 1 -0.0833844 0.374272 2.20496 0 -0.5 -2.04871 0.015 0 0 -0.346714 0.0353429 
698 1 -0.111785 0.417616 2.19822 0 -0.5 -2.08069 0.015 0 0 -0.346714 0.0353429 
696 1 -0.058387 0.403843 2.18885 0 -0.5 -2.12434 0.015 0 0 -0.346714 0.0353429 
648 1 -0.130879 0.458847 2.19362 0 -0.5 -2.10227 0.025 0 0 -1.60516 0.163625 
644 1 -0.140738 0.186408 2.21858 -0 0 -2 0.025 0 0 0 0.163625 
684 1 -0.0877228 0.214649 2.24638 -0 0 -2 0.015 0 0 0 0.0353429 
724 1 -0.0903421 0.274729 2.22414 -0 0 -2 0.015 0 0 0 0.0353429 
745 1 -0.114925 0.311202 2.23356 -0 0 -2 0.015 0 0 0 0.0353429 
628 1 -0.0865924 0.407234 2.23201 -0 0 -2 0.025 0 0 0 0.163625 
639 1 -0.0758688 0.455316 2.22146 -0 0 -2 0.025 0 0 0 0.163625 
679 1 -0.13837 0.180668 2.26096 -0 0 -2 0.015 0 0 0 0.0353429 
691 1 -0.0734004 0.189006 2.2691 -0 0 -2 0.015 0 0 0 0.0353429 
706 1 -0.129002 0.229476 2.26481 -0 0 -2 0.015 0 0 0 0.0353429 
633 1 -0.0885839 0.256976 2.27602 -0 0 -2 0.025 0 0 0 0.163625 
627 1 -0.14504 0.290308 2.25197 -0 0 -2 0.025 0 0 0 0.163625 
603 1 -0.121744 0.345667 2.25685 -0 0 -2 0.025 0 0 0 0.163625 
702 1 -0.149858 0.401742 2.26321 -0 0 -2 0.015 0 0 0 0.0353429 