ITEM: TIMESTEP
67200
ITEM: NUMBER OF ATOMS
900
ITEM: BOX BOUNDS mm mm mm
-1 1
-1 1
-1.50709 2.85
ITEM: ATOMS id type x y z vx vy vz radius fx fy fz mass 
68 1 -0.0997213 -0.0907286 -1.26721 0 -0.5 -8.50418 0.015 0 0 -0.346714 0.0353429 
137 1 -0.0914051 -0.037199 -1.24686 -0.00924354 -0.479856 -8.48132 0.015 0 0 -0.346714 0.0353429 
45 1 -0.0943793 -0.139762 -1.2233 0 -0.5 -8.45336 0.025 0 0 -1.60516 0.163625 
122 1 -0.0675588 -0.0885724 -1.22237 0.00811842 -0.517403 -8.45174 0.015 0 0 -0.346714 0.0353429 
33 1 -0.129286 0.100605 -1.23269 0 -0.5 -8.46425 0.025 0 0 -1.60516 0.163625 
43 1 -0.116198 0.0117854 -1.19074 0 -0.5 -8.41549 0.025 0 0 -1.60516 0.163625 
111 1 -0.0487783 0.1441 -1.18982 0 -0.5 -8.41442 0.015 0 0 -0.346714 0.0353429 
119 1 -0.0370509 -0.150811 -1.17787 0 -0.5 -8.40049 0.015 0 0 -0.346714 0.0353429 
75 1 -0.0493142 -0.100328 -1.15113 0 -0.5 -8.36919 0.015 0 0 -0.346714 0.0353429 
78 1 -0.0422369 0.107955 -1.16587 0 -0.5 -8.38646 0.015 0 0 -0.346714 0.0353429 
89 1 -0.129145 -0.0716921 -1.14126 0 -0.5 -8.35762 0.015 0 0 -0.346714 0.0353429 
59 1 -0.0865612 0.0568678 -1.11939 0 -0.5 -8.33191 0.015 0 0 -0.346714 0.0353429 
220 1 -0.00309464 -0.15325 -1.11673 -0.0669262 -0.554313 -8.32395 0.015 0 0 -0.346714 0.0353429 
92 1 -0.131017 0.151327 -1.09626 0 -0.5 -8.30464 0.015 0 0 -0.346714 0.0353429 
26 1 -0.0223518 0.0256026 -1.04349 0.14857 -0.341553 -8.27369 0.025 0 0 -1.60516 0.163625 
98 1 -0.147127 0.00044182 -1.01068 0 -0.5 -8.20291 0.015 0 0 -0.346714 0.0353429 
151 1 -0.0686397 0.082527 -1.01157 0 -0.5 -8.20399 0.015 0 0 -0.346714 0.0353429 
8 1 -0.104188 -0.132537 -0.984814 0 -0.5 -8.17191 0.025 0 0 -1.60516 0.163625 
3 1 -0.141317 0.0653879 -0.972957 0 -0.5 -8.15769 0.025 0 0 -1.60516 0.163625 
72 1 -0.105673 0.102796 -0.952522 0 -0.5 -8.13306 0.015 0 0 -0.346714 0.0353429 
100 1 -0.0681017 -0.064079 -0.923053 0 -0.5 -8.09745 0.015 0 0 -0.346714 0.0353429 
140 1 -0.125739 -0.0224436 -0.93043 0 -0.5 -8.10638 0.015 0 0 -0.346714 0.0353429 
118 1 -0.0372647 0.137681 -0.915288 0 -0.5 -8.08804 0.015 0 0 -0.346714 0.0353429 
40 1 -0.104474 0.154198 -0.928734 0 -0.5 -8.10432 0.025 0 0 -1.60516 0.163625 
117 1 -0.0596227 -0.120979 -0.892523 0 -0.5 -8.06037 0.015 0 0 -0.346714 0.0353429 
148 1 -0.210403 0.0388363 -0.88124 -0.171679 -0.397353 -8.10971 0.015 0 0 -0.346714 0.0353429 
51 1 -0.164901 -0.11137 -0.853739 -0.0265052 -0.519812 -8.00847 0.025 0 0 -1.60516 0.163625 
282 1 -0.0604076 -0.088478 -0.845503 -0.2609 -0.673185 -7.98829 0.015 0 0 -0.346714 0.0353429 
11 1 -0.0939395 0.0576348 -0.788974 0.022917 -0.457889 -7.94719 0.025 0 0 -1.60516 0.163625 
90 1 -0.146535 0.155667 -0.805963 0 -0.5 -7.95433 0.015 0 0 -0.346714 0.0353429 
60 1 -0.0770515 -0.112072 -0.776609 0 -0.5 -7.91803 0.015 0 0 -0.346714 0.0353429 
50 1 -0.130982 0.112355 -0.774465 0 -0.5 -7.91538 0.025 0 0 -1.60516 0.163625 
74 1 -0.0790012 0.0998934 -0.726119 0 -0.5 -7.85525 0.015 0 0 -0.346714 0.0353429 
105 1 -0.270382 0.0711803 -0.713048 -0.321192 -0.368687 -7.8309 0.015 0 0 -0.346714 0.0353429 
76 1 -0.0202065 0.12807 -0.70409 0 -0.5 -7.82768 0.015 0 0 -0.346714 0.0353429 
44 1 -0.125916 -0.120403 -0.6894 0 -0.5 -7.80924 0.025 0 0 -1.60516 0.163625 
29 1 -0.0788351 0.142182 -0.667961 0 -0.5 -7.78226 0.025 0 0 -1.60516 0.163625 
36 1 -0.103411 -0.0736875 -0.659642 0 -0.5 -7.77176 0.025 0 0 -1.60516 0.163625 
54 1 -0.181067 -0.0459082 -0.62716 -0.0956439 -0.529683 -7.72046 0.015 0 0 -0.346714 0.0353429 
114 1 -0.0721232 -0.0434639 -0.610482 -0.00040144 -0.499666 -7.70955 0.015 0 0 -0.346714 0.0353429 
113 1 -0.118506 0.177198 -0.577349 0 -0.5 -7.66719 0.015 0 0 -0.346714 0.0353429 
73 1 -0.0639552 -0.0942333 -0.568523 0 -0.5 -7.65591 0.015 0 0 -0.346714 0.0353429 
2 1 -0.110349 0.0530712 -0.560577 0 -0.5 -7.6457 0.025 0 0 -1.60516 0.163625 
146 1 -0.109965 -0.107084 -0.537459 0 -0.5 -7.61598 0.015 0 0 -0.346714 0.0353429 
88 1 -0.0666498 0.119919 -0.515022 0 -0.5 -7.58704 0.015 0 0 -0.346714 0.0353429 
12 1 -0.0363281 0.162336 -0.539577 0 -0.5 -7.61873 0.025 0 0 -1.60516 0.163625 
57 1 -0.120673 0.00906052 -0.499806 0 -0.5 -7.56732 0.015 0 0 -0.346714 0.0353429 
99 1 -0.146283 -0.0424829 -0.482038 0 -0.5 -7.54427 0.015 0 0 -0.346714 0.0353429 
10 1 -0.0604311 0.143064 -0.477145 0.0635655 -0.375939 -7.60096 0.025 0 0 -1.60516 0.163625 
19 1 -0.0715757 -0.0327476 -0.427687 0 -0.5 -7.47324 0.025 0 0 -1.60516 0.163625 
83 1 -0.108229 -0.012854 -0.432985 0 -0.5 -7.48021 0.015 0 0 -0.346714 0.0353429 
34 1 -0.138562 0.126511 -0.440996 0 -0.5 -7.49071 0.025 0 0 -1.60516 0.163625 
66 1 -0.0281121 -0.0551772 -0.422079 0 -0.5 -7.46589 0.015 0 0 -0.346714 0.0353429 
81 1 -0.0288345 0.146059 -0.4033 0.07636 -0.438847 -7.4134 0.015 0 0 -0.346714 0.0353429 
71 1 -0.145263 0.170198 -0.41036 0 -0.5 -7.45049 0.015 0 0 -0.346714 0.0353429 
67 1 -0.0183057 -0.0996113 -0.385325 0 -0.5 -7.41743 0.015 0 0 -0.346714 0.0353429 
24 1 -0.138394 -0.0725481 -0.367322 0 -0.5 -7.39359 0.025 0 0 -1.60516 0.163625 
133 1 -0.127566 0.0439444 -0.354618 0 -0.5 -7.37671 0.015 0 0 -0.346714 0.0353429 
95 1 -0.10482 0.131312 -0.349538 0 -0.5 -7.36994 0.015 0 0 -0.346714 0.0353429 
39 1 -0.0696793 0.18101 -0.349377 0 -0.5 -7.36975 0.025 0 0 -1.60516 0.163625 
103 1 -0.135939 -0.0282777 -0.313682 0 -0.5 -7.32207 0.015 0 0 -0.346714 0.0353429 
70 1 -0.107191 -0.0460756 -0.295926 0 -0.5 -7.29823 0.015 0 0 -0.346714 0.0353429 
97 1 -0.0338223 -0.042856 -0.27254 0 -0.5 -7.26674 0.015 0 0 -0.346714 0.0353429 
115 1 -0.076478 -0.00756894 -0.271953 0 -0.5 -7.26596 0.015 0 0 -0.346714 0.0353429 
143 1 -0.11631 0.189682 -0.301029 0 -0.5 -7.3051 0.015 0 0 -0.346714 0.0353429 
28 1 -0.0685748 -0.0699299 -0.259474 0 -0.5 -7.24909 0.025 0 0 -1.60516 0.163625 
85 1 -0.13789 0.114015 -0.268471 0 -0.5 -7.26125 0.015 0 0 -0.346714 0.0353429 
134 1 -0.137197 0.154367 -0.245223 0 -0.5 -7.22976 0.015 0 0 -0.346714 0.0353429 
126 1 -0.126605 0.0335921 -0.224664 -0.0288748 -0.539424 -7.18459 0.015 0 0 -0.346714 0.0353429 
120 1 -0.148569 0.203261 -0.23214 0 -0.5 -7.212 0.015 0 0 -0.346714 0.0353429 
77 1 -0.0297287 0.182749 -0.235041 0 -0.5 -7.21593 0.015 0 0 -0.346714 0.0353429 
96 1 -0.131998 -0.0429186 -0.207033 0 -0.5 -7.17777 0.015 0 0 -0.346714 0.0353429 
38 1 -0.121616 -0.00181209 -0.177759 0 -0.5 -7.13764 0.025 0 0 -1.60516 0.163625 
130 1 -0.0642546 -0.0075593 -0.123304 0 -0.5 -7.0624 0.015 0 0 -0.346714 0.0353429 
23 1 -0.134189 0.134519 -0.124571 0 -0.5 -7.06417 0.025 0 0 -1.60516 0.163625 
150 1 -0.100106 -0.0307931 -0.0915497 0 -0.5 -7.01816 0.015 0 0 -0.346714 0.0353429 
18 1 -0.106015 0.199686 -0.0898035 0 -0.5 -7.01571 0.025 0 0 -1.60516 0.163625 
4 1 -0.0330873 0.212857 -0.090913 0 -0.5 -7.01728 0.025 0 0 -1.60516 0.163625 
31 1 -0.140814 -0.0651227 -0.0711011 0 -0.5 -6.98951 0.025 0 0 -1.60516 0.163625 
106 1 -0.150657 0.332625 -0.0742309 -0.0998962 -0.230395 -7.09825 0.015 0 0 -0.346714 0.0353429 
110 1 -0.0868918 -0.0755835 -0.0342617 0 -0.5 -6.93762 0.015 0 0 -0.346714 0.0353429 
93 1 -0.0244706 -0.0638422 -0.0156373 0 -0.5 -6.91123 0.015 0 0 -0.346714 0.0353429 
17 1 -0.134634 0.0500265 -0.00624741 0 -0.5 -6.89789 0.025 0 0 -1.60516 0.163625 
136 1 -0.0832352 0.143008 -0.0107983 0 -0.5 -6.90436 0.015 0 0 -0.346714 0.0353429 
30 1 -0.0481876 0.170857 2.95379e-05 0 -0.5 -6.88896 0.025 0 0 -1.60516 0.163625 
109 1 -0.0676248 0.21808 -0.00142868 0 -0.5 -6.89102 0.015 0 0 -0.346714 0.0353429 
108 1 -0.089121 -0.0431765 0.0565322 0 -0.5 -6.80803 0.015 0 0 -0.346714 0.0353429 
1 1 -0.152173 0.422075 0.0334365 -0.021394 -0.0706631 -6.96321 0.025 0 0 -1.60516 0.163625 
69 1 -0.020474 -0.0229175 0.0867239 0 -0.5 -6.76437 0.015 0 0 -0.346714 0.0353429 
149 1 -0.0203757 0.0745725 0.110555 0.199959 -0.45766 -6.89797 0.015 0 0 -0.346714 0.0353429 
35 1 -0.146938 0.150792 0.0957068 0 -0.5 -6.75133 0.025 0 0 -1.60516 0.163625 
102 1 -0.11709 -0.0431005 0.137391 0 -0.5 -6.6905 0.015 0 0 -0.346714 0.0353429 
14 1 -0.0571303 -0.0510245 0.151879 0 -0.5 -6.66922 0.025 0 0 -1.60516 0.163625 
139 1 -0.104092 0.014572 0.13718 0 -0.5 -6.6908 0.015 0 0 -0.346714 0.0353429 
144 1 -0.0691235 0.0174741 0.13592 0 -0.5 -6.69266 0.015 0 0 -0.346714 0.0353429 
22 1 -0.102489 0.0823065 0.130357 0 -0.5 -6.7008 0.025 0 0 -1.60516 0.163625 
141 1 -0.136875 0.0302642 0.171644 0 -0.5 -6.64008 0.015 0 0 -0.346714 0.0353429 
55 1 -0.0960007 0.188402 0.158194 -7.52477e-06 -0.49998 -6.65993 0.015 0 0 -0.346714 0.0353429 
87 1 -0.113676 0.151588 0.210848 0 -0.5 -6.58191 0.015 0 0 -0.346714 0.0353429 
94 1 -0.277548 0.199263 0.203858 -0.356499 -0.190573 -6.64747 0.015 0 0 -0.346714 0.0353429 
21 1 -0.0470047 0.2335 0.191114 0 -0.5 -6.61124 0.025 0 0 -1.60516 0.163625 
107 1 -0.141609 -0.0540523 0.246055 0 -0.5 -6.52923 0.015 0 0 -0.346714 0.0353429 
147 1 -0.100309 0.221431 0.26715 0 -0.5 -6.49744 0.015 0 0 -0.346714 0.0353429 
112 1 -0.073338 0.0292787 0.280839 0 -0.5 -6.47674 0.015 0 0 -0.346714 0.0353429 
84 1 -0.116406 0.109786 0.276245 0 -0.5 -6.48371 0.015 0 0 -0.346714 0.0353429 
142 1 -0.0724928 -0.0292522 0.30963 0 -0.5 -6.43299 0.015 0 0 -0.346714 0.0353429 
80 1 -0.102893 0.156893 0.333501 0 -0.5 -6.3965 0.015 0 0 -0.346714 0.0353429 
47 1 -0.140465 0.19345 0.309758 0 -0.5 -6.4328 0.025 0 0 -1.60516 0.163625 
145 1 -0.0934491 0.186113 0.312466 0 -0.5 -6.42868 0.015 0 0 -0.346714 0.0353429 
6 1 -0.0646088 0.0237802 0.339675 0.101461 -0.428163 -6.39217 0.025 0 0 -1.60516 0.163625 
32 1 -0.176683 -0.0535247 0.375392 -0.0613285 -0.540948 -6.32923 0.025 0 0 -1.60516 0.163625 
135 1 -0.140472 0.0388926 0.372003 0 -0.5 -6.33715 0.015 0 0 -0.346714 0.0353429 
15 1 -0.0739787 0.130838 0.386404 0.0430154 -0.390763 -6.28497 0.025 0 0 -1.60516 0.163625 
62 1 -0.0849655 0.246406 0.371637 0 -0.5 -6.33774 0.015 0 0 -0.346714 0.0353429 
280 1 -0.0981567 0.438042 0.38566 -0.323138 -0.0374805 -6.39982 0.015 0 0 -0.346714 0.0353429 
138 1 -0.0317395 -0.0266844 0.397272 0 -0.5 -6.29791 0.015 0 0 -0.346714 0.0353429 
128 1 -0.145291 0.123677 0.399485 0 -0.5 -6.29447 0.015 0 0 -0.346714 0.0353429 
121 1 -0.0679495 0.228078 0.426151 0 -0.5 -6.25278 0.015 0 0 -0.346714 0.0353429 
129 1 -0.0553418 -0.00280059 0.475108 0 -0.5 -6.17548 0.015 0 0 -0.346714 0.0353429 
61 1 -0.0231802 -0.0330652 0.509668 0 -0.5 -6.12035 0.015 0 0 -0.346714 0.0353429 
79 1 -0.0179342 0.000984313 0.509783 0 -0.5 -6.12015 0.015 0 0 -0.346714 0.0353429 
13 1 -0.146779 0.0798211 0.494589 0 -0.5 -6.14448 0.025 0 0 -1.60516 0.163625 
101 1 -0.102489 0.0898245 0.489166 0 -0.5 -6.15311 0.015 0 0 -0.346714 0.0353429 
91 1 -0.124131 0.186132 0.510397 0 -0.5 -6.11917 0.015 0 0 -0.346714 0.0353429 
37 1 -0.0716655 0.192665 0.488427 0 -0.5 -6.15429 0.025 0 0 -1.60516 0.163625 
46 1 -0.032303 0.254569 0.495382 0 -0.5 -6.1432 0.025 0 0 -1.60516 0.163625 
52 1 -0.100497 -0.0175105 0.520659 0 -0.5 -6.10269 0.015 0 0 -0.346714 0.0353429 
5 1 -0.137704 0.0104118 0.534924 0 -0.5 -6.07973 0.025 0 0 -1.60516 0.163625 
7 1 -0.0712578 0.0494494 0.539359 0 -0.5 -6.07257 0.025 0 0 -1.60516 0.163625 
20 1 -0.124339 0.137888 0.530488 0 -0.5 -6.0869 0.025 0 0 -1.60516 0.163625 
86 1 -0.142939 0.179059 0.58606 0 -0.5 -5.99664 0.015 0 0 -0.346714 0.0353429 
9 1 -0.0320364 0.213159 0.590622 0 -0.5 -5.98919 0.025 0 0 -1.60516 0.163625 
65 1 -0.147981 -0.0129033 0.627378 0 -0.5 -5.92866 0.015 0 0 -0.346714 0.0353429 
58 1 -0.0969698 0.0838907 0.609133 0 -0.5 -5.95878 0.015 0 0 -0.346714 0.0353429 
124 1 -0.136447 0.209377 0.608963 0 -0.5 -5.95907 0.015 0 0 -0.346714 0.0353429 
41 1 -0.107908 0.264758 0.623947 0 -0.5 -5.93435 0.025 0 0 -1.60516 0.163625 
131 1 -0.025873 0.25204 0.66424 0 -0.5 -5.86735 0.015 0 0 -0.346714 0.0353429 
104 1 -0.138444 0.151217 0.676893 0 -0.5 -5.84616 0.015 0 0 -0.346714 0.0353429 
49 1 -0.0613084 -0.00228955 0.727671 0 -0.5 -5.76032 0.025 0 0 -1.60516 0.163625 
132 1 -0.0234712 0.0201681 0.701663 0 -0.5 -5.80447 0.015 0 0 -0.346714 0.0353429 
48 1 -0.144727 0.077852 0.700606 0 -0.5 -5.80623 0.025 0 0 -1.60516 0.163625 
53 1 -0.106432 0.12234 0.703404 0 -0.5 -5.80152 0.015 0 0 -0.346714 0.0353429 
16 1 -0.129915 0.221079 0.73177 0 -0.5 -5.75336 0.025 0 0 -1.60516 0.163625 
82 1 -0.0851821 0.211627 0.7401 0 -0.5 -5.73913 0.015 0 0 -0.346714 0.0353429 
27 1 -0.0637137 0.247885 0.732623 0 -0.5 -5.75188 0.025 0 0 -1.60516 0.163625 
63 1 -0.147823 0.277713 0.752346 0 -0.5 -5.71814 0.015 0 0 -0.346714 0.0353429 
127 1 -0.0304133 0.0436212 0.775204 0 -0.5 -5.6788 0.015 0 0 -0.346714 0.0353429 
56 1 -0.11556 0.275119 0.775027 0 -0.5 -5.67909 0.015 0 0 -0.346714 0.0353429 
25 1 -0.104447 0.0317853 0.789997 0 -0.5 -5.65319 0.025 0 0 -1.60516 0.163625 
42 1 -0.132916 0.124796 0.808814 0 -0.5 -5.62043 0.025 0 0 -1.60516 0.163625 
123 1 -0.11925 0.181492 0.813586 0 -0.5 -5.61209 0.015 0 0 -0.346714 0.0353429 
125 1 -0.0960051 0.237127 0.834078 0 -0.5 -5.57619 0.015 0 0 -0.346714 0.0353429 
64 1 -0.145219 0.245177 0.831661 0 -0.5 -5.5804 0.015 0 0 -0.346714 0.0353429 
392 1 -0.0201822 -0.00462337 0.853309 0 -0.5 -5.54224 0.015 0 0 -0.346714 0.0353429 
361 1 -0.0655065 0.0231594 0.850087 0 -0.5 -5.54793 0.015 0 0 -0.346714 0.0353429 
375 1 -0.132504 0.0602129 0.862267 0 -0.5 -5.52635 0.015 0 0 -0.346714 0.0353429 
391 1 -0.0665259 0.22219 0.851857 0 -0.5 -5.54479 0.015 0 0 -0.346714 0.0353429 
353 1 -0.0778865 0.0765101 0.88692 0 -0.5 -5.4824 0.015 0 0 -0.346714 0.0353429 
432 1 -0.110656 0.136023 0.902614 0 -0.5 -5.45425 0.015 0 0 -0.346714 0.0353429 
423 1 -0.035066 0.240352 0.900497 0 -0.5 -5.45807 0.015 0 0 -0.346714 0.0353429 
370 1 -0.0476722 0.294061 0.886885 0 -0.5 -5.4825 0.015 0 0 -0.346714 0.0353429 
449 1 -0.121601 0.00097023 0.916664 0 -0.5 -5.42894 0.015 0 0 -0.346714 0.0353429 
348 1 -0.0485918 0.0106376 0.939323 -0.0150753 -0.514502 -5.38479 0.025 0 0 -1.60516 0.163625 
409 1 -0.1116 0.108279 0.947818 0 -0.5 -5.37233 0.015 0 0 -0.346714 0.0353429 
434 1 -0.110177 0.268235 0.945083 0 -0.5 -5.37734 0.015 0 0 -0.346714 0.0353429 
304 1 -0.147639 0.234299 0.978176 0 -0.5 -5.31661 0.025 0 0 -1.60516 0.163625 
414 1 -0.12165 0.178412 1.01678 0 -0.5 -5.2449 0.015 0 0 -0.346714 0.0353429 
327 1 -0.047146 0.271396 1.01059 0 -0.5 -5.25648 0.025 0 0 -1.60516 0.163625 
368 1 -0.0426125 0.0461031 1.03706 0 -0.5 -5.20684 0.015 0 0 -0.346714 0.0353429 
328 1 -0.101567 0.0713596 1.05564 0 -0.5 -5.17172 0.025 0 0 -1.60516 0.163625 
416 1 -0.148865 0.199752 1.03112 0 -0.5 -5.21802 0.015 0 0 -0.346714 0.0353429 
342 1 -0.0942786 0.222007 1.05703 0 -0.5 -5.16907 0.025 0 0 -1.60516 0.163625 
422 1 -0.0856494 0.262628 1.03499 0 -0.5 -5.21076 0.015 0 0 -0.346714 0.0353429 
440 1 -0.074831 0.0226332 1.08408 0 -0.5 -5.11747 0.015 0 0 -0.346714 0.0353429 
307 1 -0.141488 0.0403164 1.0688 0 -0.5 -5.1467 0.025 0 0 -1.60516 0.163625 
441 1 -0.0895132 0.300957 1.06925 0 -0.5 -5.14582 0.015 0 0 -0.346714 0.0353429 
388 1 -0.0545692 0.0866855 1.11613 0 -0.5 -5.05567 0.015 0 0 -0.346714 0.0353429 
323 1 -0.131477 0.155813 1.11386 0 -0.5 -5.06008 0.025 0 0 -1.60516 0.163625 
352 1 -0.144025 0.259939 1.09645 0 -0.5 -5.09373 0.015 0 0 -0.346714 0.0353429 
330 1 -0.125578 0.316028 1.10148 0 -0.5 -5.08402 0.025 0 0 -1.60516 0.163625 
406 1 -0.0920408 0.259666 1.12562 0 -0.5 -5.03723 0.015 0 0 -0.346714 0.0353429 
418 1 -0.0554251 0.0329403 1.17105 0 -0.5 -4.94795 0.015 0 0 -0.346714 0.0353429 
395 1 -0.110093 0.0838721 1.17901 0 -0.5 -4.93216 0.015 0 0 -0.346714 0.0353429 
318 1 -0.126425 0.233158 1.16833 0 -0.5 -4.95335 0.025 0 0 -1.60516 0.163625 
336 1 -0.025747 0.266523 1.17802 0 -0.5 -4.93412 0.025 0 0 -1.60516 0.163625 
331 1 -0.138106 0.027831 1.1862 0 -0.5 -4.91784 0.025 0 0 -1.60516 0.163625 
313 1 -0.0392615 0.0716895 1.2014 0 -0.5 -4.88743 0.025 0 0 -1.60516 0.163625 
374 1 -0.133879 0.293467 1.20408 0 -0.5 -4.88203 0.015 0 0 -0.346714 0.0353429 
315 1 -0.0970947 0.138406 1.22827 0 -0.5 -4.83318 0.025 0 0 -1.60516 0.163625 
407 1 -0.0713596 0.266089 1.22992 0 -0.5 -4.82984 0.015 0 0 -0.346714 0.0353429 
310 1 -0.0919271 0.303993 1.22493 0 -0.5 -4.83995 0.025 0 0 -1.60516 0.163625 
445 1 -0.0938501 0.208643 1.24609 0 -0.5 -4.79688 0.015 0 0 -0.346714 0.0353429 
386 1 -0.118095 0.27711 1.26828 0 -0.5 -4.75126 0.015 0 0 -0.346714 0.0353429 
377 1 -0.128279 0.0557203 1.27285 0 -0.5 -4.74185 0.015 0 0 -0.346714 0.0353429 
344 1 -0.147144 0.209445 1.29135 0 -0.5 -4.70339 0.025 0 0 -1.60516 0.163625 
302 1 -0.0567477 0.0533163 1.31298 0 -0.5 -4.65807 0.025 0 0 -1.60516 0.163625 
401 1 -0.0913429 0.0847804 1.3107 0 -0.5 -4.66288 0.015 0 0 -0.346714 0.0353429 
314 1 -0.136534 0.121236 1.32329 0 -0.5 -4.63629 0.025 0 0 -1.60516 0.163625 
439 1 -0.132801 0.171897 1.30724 0 -0.5 -4.67013 0.015 0 0 -0.346714 0.0353429 
431 1 -0.13363 0.0816506 1.35606 0 -0.5 -4.56644 0.015 0 0 -0.346714 0.0353429 
355 1 -0.0483468 0.100759 1.34768 0 -0.5 -4.5844 0.015 0 0 -0.346714 0.0353429 
354 1 -0.0927402 0.269498 1.35423 0 -0.5 -4.57037 0.015 0 0 -0.346714 0.0353429 
413 1 -0.0512121 0.270816 1.34061 0 -0.5 -4.5995 0.015 0 0 -0.346714 0.0353429 
442 1 -0.149932 0.330171 1.34214 0 -0.5 -4.59627 0.015 0 0 -0.346714 0.0353429 
408 1 -0.087028 0.338439 1.35254 0 -0.5 -4.574 0.015 0 0 -0.346714 0.0353429 
446 1 -0.116317 0.238626 1.38062 0 -0.5 -4.51337 0.015 0 0 -0.346714 0.0353429 
411 1 -0.0485728 0.321056 1.38968 0 -0.5 -4.49365 0.015 0 0 -0.346714 0.0353429 
382 1 -0.105306 0.360287 1.37151 0.026541 -0.439017 -4.60959 0.015 0 0 -0.346714 0.0353429 
427 1 -0.0943658 0.407569 1.40281 0.0988458 -0.172977 -4.64682 0.015 0 0 -0.346714 0.0353429 
324 1 -0.0498553 0.0587032 1.45289 0 -0.5 -4.35347 0.025 0 0 -1.60516 0.163625 
350 1 -0.147794 0.0913949 1.44175 0 -0.5 -4.37848 0.025 0 0 -1.60516 0.163625 
399 1 -0.074527 0.104048 1.42848 0 -0.5 -4.40811 0.015 0 0 -0.346714 0.0353429 
335 1 -0.126459 0.152418 1.4415 0 -0.5 -4.37907 0.025 0 0 -1.60516 0.163625 
436 1 -0.0854574 0.158951 1.42773 0 -0.5 -4.40978 0.015 0 0 -0.346714 0.0353429 
341 1 -0.148816 0.272228 1.43082 0 -0.5 -4.40291 0.025 0 0 -1.60516 0.163625 
385 1 -0.0696212 0.281365 1.44919 0 -0.5 -4.36181 0.015 0 0 -0.346714 0.0353429 
389 1 -0.0230912 0.345676 1.43214 0 -0.5 -4.39997 0.015 0 0 -0.346714 0.0353429 
384 1 -0.174519 0.364925 1.44391 -0.135564 -0.440896 -4.39291 0.015 0 0 -0.346714 0.0353429 
437 1 -0.0723044 0.135232 1.46145 0 -0.5 -4.33414 0.015 0 0 -0.346714 0.0353429 
367 1 -0.106717 0.115831 1.50128 0 -0.5 -4.24301 0.015 0 0 -0.346714 0.0353429 
394 1 -0.145405 0.310684 1.48842 0 -0.5 -4.27263 0.015 0 0 -0.346714 0.0353429 
424 1 -0.1339 0.342914 1.50888 -0.0730123 -0.390635 -4.23426 0.015 0 0 -0.346714 0.0353429 
319 1 -0.0687817 0.362025 1.51434 0 -0.5 -4.21269 0.025 0 0 -1.60516 0.163625 
426 1 -0.0179373 0.340964 1.50082 0 -0.5 -4.24409 0.015 0 0 -0.346714 0.0353429 
358 1 -0.127277 0.0827924 1.51734 0 -0.5 -4.20573 0.015 0 0 -0.346714 0.0353429 
376 1 -0.0824761 0.127772 1.5402 0 -0.5 -4.15207 0.015 0 0 -0.346714 0.0353429 
326 1 -0.145564 0.212454 1.51927 0 -0.5 -4.20122 0.025 0 0 -1.60516 0.163625 
433 1 -0.118613 0.0686652 1.56775 0 -0.5 -4.08644 0.015 0 0 -0.346714 0.0353429 
420 1 -0.037203 0.0768256 1.57176 0 -0.5 -4.07683 0.015 0 0 -0.346714 0.0353429 
402 1 -0.101682 0.112287 1.57562 0 -0.5 -4.06751 0.015 0 0 -0.346714 0.0353429 
306 1 -0.116739 0.290034 1.57436 0 -0.5 -4.07055 0.025 0 0 -1.60516 0.163625 
363 1 -0.0911777 0.189327 1.60069 0 -0.5 -4.00659 0.015 0 0 -0.346714 0.0353429 
360 1 -0.116599 0.213221 1.59894 0 -0.5 -4.0109 0.015 0 0 -0.346714 0.0353429 
397 1 -0.0557758 0.301618 1.60477 0 -0.5 -3.99658 0.015 0 0 -0.346714 0.0353429 
412 1 -0.0937388 0.360584 1.58066 0 -0.5 -4.05534 0.015 0 0 -0.346714 0.0353429 
371 1 -0.0449321 0.340104 1.59712 0 -0.5 -4.01532 0.015 0 0 -0.346714 0.0353429 
322 1 -0.131733 0.0995637 1.63361 0 -0.5 -3.92516 0.025 0 0 -1.60516 0.163625 
396 1 -0.0958984 0.26666 1.63581 0 -0.5 -3.91967 0.015 0 0 -0.346714 0.0353429 
381 1 -0.0827007 0.335114 1.63004 0 -0.5 -3.93409 0.015 0 0 -0.346714 0.0353429 
373 1 -0.136858 0.246184 1.64324 0 -0.5 -3.90103 0.015 0 0 -0.346714 0.0353429 
369 1 -0.138958 0.304563 1.6462 0 -0.5 -3.89358 0.015 0 0 -0.346714 0.0353429 
383 1 -0.0262689 0.322803 1.64733 0 -0.5 -3.89073 0.015 0 0 -0.346714 0.0353429 
308 1 -0.0786631 0.115113 1.67073 -0.0168546 -0.516386 -3.82953 0.025 0 0 -1.60516 0.163625 
415 1 -0.127182 0.15013 1.6935 0 -0.5 -3.77252 0.015 0 0 -0.346714 0.0353429 
438 1 -0.0987495 0.198333 1.67199 0 -0.5 -3.82804 0.015 0 0 -0.346714 0.0353429 
356 1 -0.111476 0.241564 1.67935 0 -0.5 -3.80911 0.015 0 0 -0.346714 0.0353429 
443 1 -0.0906469 0.296658 1.69137 0 -0.5 -3.77801 0.015 0 0 -0.346714 0.0353429 
340 1 -0.149237 0.369237 1.67882 0 -0.5 -3.81048 0.025 0 0 -1.60516 0.163625 
343 1 -0.140775 0.208899 1.70092 0 -0.5 -3.75319 0.025 0 0 -1.60516 0.163625 
349 1 -0.116564 0.328594 1.70507 0 -0.5 -3.74231 0.025 0 0 -1.60516 0.163625 
351 1 -0.0409452 0.327112 1.70993 0 -0.5 -3.72955 0.015 0 0 -0.346714 0.0353429 
390 1 -0.0988461 0.11059 1.7326 0 -0.5 -3.66942 0.015 0 0 -0.346714 0.0353429 
448 1 -0.0329565 0.11957 1.75566 0 -0.5 -3.60722 0.015 0 0 -0.346714 0.0353429 
419 1 -0.111609 0.101519 1.78735 0 -0.5 -3.52001 0.015 0 0 -0.346714 0.0353429 
347 1 -0.0548177 0.15689 1.76164 0 -0.5 -3.59094 0.025 0 0 -1.60516 0.163625 
362 1 -0.0154426 0.151609 1.78438 0 -0.5 -3.52825 0.015 0 0 -0.346714 0.0353429 
378 1 -0.121409 0.205198 1.76863 0 -0.5 -3.57181 0.015 0 0 -0.346714 0.0353429 
312 1 -0.134707 0.264718 1.76978 0 -0.5 -3.56867 0.025 0 0 -1.60516 0.163625 
359 1 -0.107325 0.309399 1.77746 0 -0.5 -3.54748 0.015 0 0 -0.346714 0.0353429 
303 1 -0.0551599 0.328479 1.78482 0 -0.5 -3.52707 0.025 0 0 -1.60516 0.163625 
417 1 -0.0160313 0.364054 1.76977 0 -0.5 -3.56867 0.015 0 0 -0.346714 0.0353429 
346 1 -0.15225 0.411632 1.76622 -0.0151472 -0.325165 -3.6271 0.025 0 0 -1.60516 0.163625 
421 1 -0.0930175 0.181542 1.80199 0 -0.5 -3.479 0.015 0 0 -0.346714 0.0353429 
334 1 -0.103439 0.364448 1.79574 0 -0.5 -3.49656 0.025 0 0 -1.60516 0.163625 
325 1 -0.117824 0.225025 1.8399 0 -0.5 -3.37041 0.025 0 0 -1.60516 0.163625 
365 1 -0.142135 0.300616 1.83425 0.0322739 -0.84426 -3.29182 0.015 0 0 -0.346714 0.0353429 
309 1 -0.144284 0.140031 1.87056 0 -0.5 -3.27996 0.025 0 0 -1.60516 0.163625 
320 1 -0.0648735 0.140929 1.85462 0 -0.5 -3.32724 0.025 0 0 -1.60516 0.163625 
387 1 -0.0901615 0.302452 1.87403 0 -0.5 -3.26956 0.015 0 0 -0.346714 0.0353429 
372 1 -0.0702168 0.324237 1.86021 0 -0.5 -3.31076 0.015 0 0 -0.346714 0.0353429 
447 1 -0.122284 0.405789 1.85553 0 -0.5 -3.3246 0.015 0 0 -0.346714 0.0353429 
338 1 -0.0583644 0.393556 1.87251 0 -0.5 -3.27407 0.025 0 0 -1.60516 0.163625 
379 1 -0.0327871 0.142329 1.89964 0 -0.5 -3.19177 0.015 0 0 -0.346714 0.0353429 
430 1 -0.123083 0.187393 1.88128 0 -0.5 -3.24768 0.015 0 0 -0.346714 0.0353429 
403 1 -0.0833248 0.193397 1.88444 0 -0.5 -3.23817 0.015 0 0 -0.346714 0.0353429 
393 1 -0.015571 0.364279 1.89584 0 -0.5 -3.20344 0.015 0 0 -0.346714 0.0353429 
316 1 -0.0983119 0.126111 1.93474 0 -0.5 -3.08199 0.025 0 0 -1.60516 0.163625 
357 1 -0.0584785 0.191214 1.9283 0 -0.5 -3.1024 0.015 0 0 -0.346714 0.0353429 
301 1 -0.0871094 0.36503 1.9362 0.012148 -0.512208 -3.07737 0.025 0 0 -1.60516 0.163625 
329 1 -0.124973 0.403203 1.93232 -0.0138001 -0.485947 -3.08978 0.025 0 0 -1.60516 0.163625 
364 1 -0.0453235 0.156807 1.94726 0 -0.5 -3.04187 0.015 0 0 -0.346714 0.0353429 
321 1 -0.126579 0.197251 1.94829 0 -0.5 -3.03854 0.025 0 0 -1.60516 0.163625 
410 1 -0.145474 0.246536 1.95297 0 -0.5 -3.02343 0.015 0 0 -0.346714 0.0353429 
333 1 -0.0978849 0.259337 1.94929 0 -0.5 -3.0353 0.025 0 0 -1.60516 0.163625 
380 1 -0.127355 0.301976 1.94226 0 -0.5 -3.05796 0.015 0 0 -0.346714 0.0353429 
337 1 -0.142368 0.342838 1.96427 0 -0.5 -2.98654 0.025 0 0 -1.60516 0.163625 
428 1 -0.0387226 0.376002 1.9412 0 -0.5 -3.06139 0.015 0 0 -0.346714 0.0353429 
450 1 -0.0322061 0.420898 1.94247 0 -0.5 -3.05727 0.015 0 0 -0.346714 0.0353429 
425 1 -0.074083 0.134787 2.01865 0 -0.5 -2.80221 0.015 0 0 -0.346714 0.0353429 
311 1 -0.0354402 0.150368 2.02939 0 -0.5 -2.76435 0.025 0 0 -1.60516 0.163625 
332 1 -0.0814262 0.188266 2.00414 0 -0.5 -2.85254 0.025 0 0 -1.60516 0.163625 
400 1 -0.135353 0.231905 2.00788 0 -0.5 -2.83969 0.015 0 0 -0.346714 0.0353429 
317 1 -0.129905 0.274055 2.0259 0 -0.5 -2.77671 0.025 0 0 -1.60516 0.163625 
366 1 -0.144217 0.351022 2.02348 0 -0.5 -2.78524 0.015 0 0 -0.346714 0.0353429 
405 1 -0.038992 0.38539 2.02922 0 -0.5 -2.76493 0.015 0 0 -0.346714 0.0353429 
339 1 -0.0802774 0.39666 2.01812 0 -0.5 -2.80408 0.025 0 0 -1.60516 0.163625 
305 1 -0.0452536 0.433472 2.01865 0 -0.5 -2.80221 0.025 0 0 -1.60516 0.163625 
544 1 -0.00921136 0.463644 2.02358 -0.39021 -0.130746 -2.88565 0.015 0 0 -0.346714 0.0353429 
404 1 -0.119976 0.155844 2.04067 0 -0.5 -2.72403 0.015 0 0 -0.346714 0.0353429 
345 1 -0.128178 0.198674 2.03722 0 -0.5 -2.73639 0.025 0 0 -1.60516 0.163625 
435 1 -0.0960728 0.235976 2.04112 0 -0.5 -2.72246 0.015 0 0 -0.346714 0.0353429 
444 1 -0.0159467 0.431826 2.05711 0 -0.5 -2.66419 0.015 0 0 -0.346714 0.0353429 
714 1 -0.0240605 0.200326 2.07661 0 -0.5 -2.5914 0.015 0 0 -0.346714 0.0353429 
676 1 -0.132839 0.227867 2.08621 0 -0.5 -2.5548 0.015 0 0 -0.346714 0.0353429 
675 1 -0.130717 0.387635 2.0774 -0.0349785 -0.349711 -2.71928 0.015 0 0 -0.346714 0.0353429 
634 1 -0.102181 0.420021 2.08159 0 -0.5 -2.57246 0.025 0 0 -1.60516 0.163625 
690 1 -0.0634806 0.398565 2.08032 0 -0.5 -2.57727 0.015 0 0 -0.346714 0.0353429 
608 1 -0.0938106 0.168793 2.11885 0 -0.5 -2.4262 0.025 0 0 -1.60516 0.163625 
652 1 -0.0683105 0.232338 2.09508 0 -0.5 -2.52047 0.015 0 0 -0.346714 0.0353429 
629 1 -0.113195 0.279381 2.10211 0 -0.5 -2.493 0.025 0 0 -1.60516 0.163625 
606 1 -0.122844 0.355499 2.12024 0.00210743 -0.508228 -2.41333 0.025 0 0 -1.60516 0.163625 
708 1 -0.0786991 0.393401 2.11994 0 -0.5 -2.42178 0.015 0 0 -0.346714 0.0353429 
669 1 -0.0318411 0.409893 2.09715 0 -0.5 -2.51243 0.015 0 0 -0.346714 0.0353429 
682 1 -0.0469368 0.164781 2.12356 0 -0.5 -2.40707 0.015 0 0 -0.346714 0.0353429 
657 1 -0.0480729 0.202927 2.12877 0 -0.5 -2.38578 0.015 0 0 -0.346714 0.0353429 
735 1 -0.0832421 0.246669 2.13759 0 -0.5 -2.34919 0.015 0 0 -0.346714 0.0353429 
660 1 -0.0183143 0.406377 2.13074 0 -0.5 -2.37764 0.015 0 0 -0.346714 0.0353429 
701 1 -0.0870486 0.451674 2.12189 0 -0.5 -2.41383 0.015 0 0 -0.346714 0.0353429 
707 1 -0.0900659 0.195989 2.16963 0 -0.5 -2.21136 0.015 0 0 -0.346714 0.0353429 
618 1 -0.13283 0.213164 2.16111 0 -0.5 -2.24883 0.025 0 0 -1.60516 0.163625 
680 1 -0.0791761 0.250881 2.17697 0 -0.5 -2.17859 0.015 0 0 -0.346714 0.0353429 
709 1 -0.101732 0.295531 2.15653 0 -0.5 -2.26874 0.015 0 0 -0.346714 0.0353429 
649 1 -0.129761 0.329177 2.17026 0 -0.5 -2.20861 0.025 0 0 -1.60516 0.163625 
750 1 -0.0862874 0.360179 2.16221 0 -0.5 -2.24402 0.015 0 0 -0.346714 0.0353429 
677 1 -0.113879 0.186303 2.19826 0 -0.5 -2.08049 0.015 0 0 -0.346714 0.0353429 
640 1 -0.0489559 0.215517 2.1827 0 -0.5 -2.15259 0.025 0 0 -1.60516 0.163625 
744 1 -0.107021 0.372725 2.20651 0 -0.5 -2.04125 0.015 0 0 -0.346714 0.0353429 
616 1 -0.140255 0.421264 2.18309 0 -0.5 -2.15083 0.025 0 0 -1.60516 0.163625 
725 1 -0.0732043 0.423614 2.19332 0 -0.5 -2.10364 0.015 0 0 -0.346714 0.0353429 
712 1 -0.0372677 0.46655 2.18862 0 -0.5 -2.12552 0.015 0 0 -0.346714 0.0353429 
610 1 -0.108705 0.213129 2.24069 -0 0 -2 0.025 0 0 0 0.163625 
692 1 -0.0389882 0.23636 2.23384 -0 0 -2 0.015 0 0 0 0.0353429 
736 1 -0.0864872 0.278273 2.2211 -0 0 -2 0.015 0 0 0 0.0353429 
722 1 -0.124711 0.413708 2.23388 -0 0 -2 0.015 0 0 0 0.0353429 
685 1 -0.0969629 0.419298 2.21662 -0 0 -2 0.015 0 0 0 0.0353429 
620 1 -0.0294016 0.445755 2.23902 -0 0 -2 0.025 0 0 0 0.163625 
674 1 -0.11657 0.471494 2.2312 -0 0 -2 0.015 0 0 0 0.0353429 
699 1 -0.0856858 0.473675 2.22999 -0 0 -2 0.015 0 0 0 0.0353429 
705 1 -0.0946775 0.182879 2.2726 -0 0 -2 0.015 0 0 0 0.0353429 
748 1 -0.0192599 0.200066 2.25007 -0 0 -2 0.015 0 0 0 0.0353429 
625 1 -0.115962 0.283889 2.25187 -0 0 -2 0.025 0 0 0 0.163625 
678 1 -0.0973357 0.337318 2.26266 -0 0 -2 0.015 0 0 0 0.0353429 
636 1 -0.149776 0.383946 2.25712 -0 0 -2 0.025 0 0 0 0.163625 
683 1 -0.0829948 0.413557 2.24316 -0 0 -2 0.015 0 0 0 0.0353429 
696 1 -0.058387 0.410183 2.26964 -0 0 -2 0.015 0 0 0 0.0353429 
732 1 -0.0691875 0.449832 2.24626 -0 0 -2 0.015 0 0 0 0.0353429 
644 1 -0.140738 0.186408 2.29858 -0 0 -2 0.025 0 0 0 0.163625 
637 1 -0.0618774 0.209032 2.29415 -0 0 -2 0.025 0 0 0 0.163625 
730 1 -0.0250727 0.190561 2.28976 -0 0 -2 0.015 0 0 0 0.0353429 
729 1 -0.0894542 0.239788 2.29548 -0 0 -2 0.015 0 0 0 0.0353429 
641 1 -0.143995 0.248499 2.27714 -0 0 -2 0.025 0 0 0 0.163625 
694 1 -0.138308 0.343846 2.28455 -0 0 -2 0.015 0 0 0 0.0353429 
733 1 -0.0833844 0.376757 2.28508 -0 0 -2 0.015 0 0 0 0.0353429 
698 1 -0.111785 0.421731 2.27855 -0 0 -2 0.015 0 0 0 0.0353429 
648 1 -0.130879 0.464062 2.27415 -0 0 -2 0.025 0 0 0 0.163625 
639 1 -0.0758688 0.455316 2.30146 -0 0 -2 0.025 0 0 0 0.163625 
684 1 -0.0877228 0.214649 2.32638 -0 0 -2 0.015 0 0 0 0.0353429 
627 1 -0.14504 0.290308 2.33197 -0 0 -2 0.025 0 0 0 0.163625 
724 1 -0.0903421 0.274729 2.30414 -0 0 -2 0.015 0 0 0 0.0353429 
745 1 -0.114925 0.311202 2.31356 -0 0 -2 0.015 0 0 0 0.0353429 
628 1 -0.0865924 0.407234 2.31201 -0 0 -2 0.025 0 0 0 0.163625 
679 1 -0.13837 0.180668 2.34096 -0 0 -2 0.015 0 0 0 0.0353429 
691 1 -0.0734004 0.189006 2.3491 -0 0 -2 0.015 0 0 0 0.0353429 
706 1 -0.129002 0.229476 2.34481 -0 0 -2 0.015 0 0 0 0.0353429 
741 1 -0.142229 0.250235 2.36347 -0 0 -2 0.015 0 0 0 0.0353429 
633 1 -0.0885839 0.256976 2.35602 -0 0 -2 0.025 0 0 0 0.163625 
603 1 -0.121744 0.345667 2.33685 -0 0 -2 0.025 0 0 0 0.163625 
702 1 -0.149858 0.401742 2.34321 -0 0 -2 0.015 0 0 0 0.0353429 
695 1 -0.0580393 0.404144 2.34755 -0 0 -2 0.015 0 0 0 0.0353429 
673 1 -0.0172558 0.429744 2.35368 -0 0 -2 0.015 0 0 0 0.0353429 
635 1 -0.142362 0.4734 2.34118 -0 0 -2 0.025 0 0 0 0.163625 
703 1 -0.0877381 0.462891 2.34049 -0 0 -2 0.015 0 0 0 0.0353429 
728 1 -0.112468 0.204973 2.37841 -0 0 -2 0.015 0 0 0 0.0353429 
740 1 -0.0241674 0.189645 2.36476 -0 0 -2 0.015 0 0 0 0.0353429 