ITEM: TIMESTEP
73600
ITEM: NUMBER OF ATOMS
900
ITEM: BOX BOUNDS mm mm mm
-1 1
-1 1
-2.09737 2.85
ITEM: ATOMS id type x y z vx vy vz radius fx fy fz mass 
68 1 -0.0997213 -0.122729 -1.83157 0 -0.5 -9.13202 0.015 0 0 -0.346714 0.0353429 
137 1 -0.0919967 -0.0679098 -1.80976 -0.00924354 -0.479856 -9.10916 0.015 0 0 -0.346714 0.0353429 
45 1 -0.0943793 -0.171762 -1.78441 0 -0.5 -9.0812 0.025 0 0 -1.60516 0.163625 
122 1 -0.0670392 -0.121686 -1.78338 0.00811842 -0.517403 -9.07958 0.015 0 0 -0.346714 0.0353429 
33 1 -0.129286 0.0686047 -1.79449 0 -0.5 -9.09209 0.025 0 0 -1.60516 0.163625 
43 1 -0.116198 -0.0202146 -1.74942 0 -0.5 -9.04333 0.025 0 0 -1.60516 0.163625 
111 1 -0.0487783 0.1121 -1.74843 0 -0.5 -9.04226 0.015 0 0 -0.346714 0.0353429 
119 1 -0.0370509 -0.182811 -1.73559 0 -0.5 -9.02833 0.015 0 0 -0.346714 0.0353429 
75 1 -0.0493142 -0.132328 -1.70685 0 -0.5 -8.99703 0.015 0 0 -0.346714 0.0353429 
78 1 -0.0422369 0.0759551 -1.7227 0 -0.5 -9.0143 0.015 0 0 -0.346714 0.0353429 
89 1 -0.129145 -0.103692 -1.69623 0 -0.5 -8.98546 0.015 0 0 -0.346714 0.0353429 
220 1 -0.00737791 -0.188726 -1.66956 -0.0669262 -0.554313 -8.95179 0.015 0 0 -0.346714 0.0353429 
59 1 -0.0865612 0.0248678 -1.67273 0 -0.5 -8.95975 0.015 0 0 -0.346714 0.0353429 
92 1 -0.131017 0.119327 -1.64785 0 -0.5 -8.93248 0.015 0 0 -0.346714 0.0353429 
26 1 -0.0128434 0.00374321 -1.5931 0.14857 -0.341553 -8.90153 0.025 0 0 -1.60516 0.163625 
98 1 -0.147127 -0.0315582 -1.55575 0 -0.5 -8.83075 0.015 0 0 -0.346714 0.0353429 
151 1 -0.0686397 0.050527 -1.55672 0 -0.5 -8.83183 0.015 0 0 -0.346714 0.0353429 
8 1 -0.104188 -0.164537 -1.52791 0 -0.5 -8.79975 0.025 0 0 -1.60516 0.163625 
3 1 -0.141317 0.0333879 -1.51514 0 -0.5 -8.78553 0.025 0 0 -1.60516 0.163625 
140 1 -0.125739 -0.0544436 -1.46933 0 -0.5 -8.73422 0.015 0 0 -0.346714 0.0353429 
72 1 -0.105673 0.070796 -1.49313 0 -0.5 -8.7609 0.015 0 0 -0.346714 0.0353429 
40 1 -0.104474 0.122198 -1.4675 0 -0.5 -8.73216 0.025 0 0 -1.60516 0.163625 
100 1 -0.0681017 -0.096079 -1.46138 0 -0.5 -8.72529 0.015 0 0 -0.346714 0.0353429 
118 1 -0.0372647 0.105681 -1.45301 0 -0.5 -8.71588 0.015 0 0 -0.346714 0.0353429 
117 1 -0.0596227 -0.152979 -1.42848 0 -0.5 -8.68821 0.015 0 0 -0.346714 0.0353429 
148 1 -0.22139 0.0134058 -1.42035 -0.171679 -0.397353 -8.73755 0.015 0 0 -0.346714 0.0353429 
51 1 -0.166597 -0.144638 -1.38637 -0.0265052 -0.519812 -8.63631 0.025 0 0 -1.60516 0.163625 
282 1 -0.0771052 -0.131562 -1.37684 -0.2609 -0.673185 -8.61613 0.015 0 0 -0.346714 0.0353429 
11 1 -0.0924728 0.0283299 -1.31768 0.022917 -0.457889 -8.57503 0.025 0 0 -1.60516 0.163625 
90 1 -0.146535 0.123667 -1.33513 0 -0.5 -8.58217 0.015 0 0 -0.346714 0.0353429 
60 1 -0.0770515 -0.144072 -1.30345 0 -0.5 -8.54587 0.015 0 0 -0.346714 0.0353429 
50 1 -0.130982 0.0803549 -1.30114 0 -0.5 -8.54322 0.025 0 0 -1.60516 0.163625 
105 1 -0.290938 0.0475843 -1.23432 -0.321192 -0.368687 -8.45874 0.015 0 0 -0.346714 0.0353429 
74 1 -0.0790012 0.0678934 -1.24895 0 -0.5 -8.48309 0.015 0 0 -0.346714 0.0353429 
76 1 -0.0202065 0.09607 -1.22515 0 -0.5 -8.45552 0.015 0 0 -0.346714 0.0353429 
44 1 -0.125916 -0.152403 -1.20928 0 -0.5 -8.43708 0.025 0 0 -1.60516 0.163625 
36 1 -0.103411 -0.105688 -1.17713 0 -0.5 -8.3996 0.025 0 0 -1.60516 0.163625 
29 1 -0.0788351 0.110182 -1.18612 0 -0.5 -8.4101 0.025 0 0 -1.60516 0.163625 
54 1 -0.187188 -0.0798079 -1.14136 -0.0956439 -0.529683 -8.3483 0.015 0 0 -0.346714 0.0353429 
114 1 -0.0721488 -0.0754425 -1.12398 -0.00040144 -0.499666 -8.33739 0.015 0 0 -0.346714 0.0353429 
73 1 -0.0639552 -0.126233 -1.07859 0 -0.5 -8.28375 0.015 0 0 -0.346714 0.0353429 
113 1 -0.118506 0.145198 -1.08814 0 -0.5 -8.29503 0.015 0 0 -0.346714 0.0353429 
146 1 -0.109965 -0.139084 -1.04497 0 -0.5 -8.24382 0.015 0 0 -0.346714 0.0353429 
2 1 -0.110349 0.0210712 -1.06999 0 -0.5 -8.27354 0.025 0 0 -1.60516 0.163625 
12 1 -0.0363281 0.130336 -1.04727 0 -0.5 -8.24657 0.025 0 0 -1.60516 0.163625 
88 1 -0.0666498 0.0879185 -1.02068 0 -0.5 -8.21488 0.015 0 0 -0.346714 0.0353429 
99 1 -0.146283 -0.0744829 -0.984962 0 -0.5 -8.17211 0.015 0 0 -0.346714 0.0353429 
57 1 -0.120673 -0.0229395 -1.00421 0 -0.5 -8.19516 0.015 0 0 -0.346714 0.0353429 
10 1 -0.0563629 0.119004 -0.983697 0.0635655 -0.375939 -8.2288 0.025 0 0 -1.60516 0.163625 
19 1 -0.0715757 -0.0647476 -0.926066 0 -0.5 -8.10108 0.025 0 0 -1.60516 0.163625 
83 1 -0.108229 -0.044854 -0.93181 0 -0.5 -8.10805 0.015 0 0 -0.346714 0.0353429 
34 1 -0.138562 0.094511 -0.940492 0 -0.5 -8.11855 0.025 0 0 -1.60516 0.163625 
66 1 -0.0281121 -0.0871772 -0.919986 0 -0.5 -8.09373 0.015 0 0 -0.346714 0.0353429 
81 1 -0.0239475 0.117973 -0.897849 0.07636 -0.438847 -8.04124 0.015 0 0 -0.346714 0.0353429 
71 1 -0.145263 0.138198 -0.907282 0 -0.5 -8.07833 0.015 0 0 -0.346714 0.0353429 
67 1 -0.0183057 -0.131611 -0.880132 0 -0.5 -8.04527 0.015 0 0 -0.346714 0.0353429 
24 1 -0.138394 -0.104548 -0.860603 0 -0.5 -8.02143 0.025 0 0 -1.60516 0.163625 
133 1 -0.127566 0.0119444 -0.846818 0 -0.5 -8.00455 0.015 0 0 -0.346714 0.0353429 
95 1 -0.10482 0.0993122 -0.841305 0 -0.5 -7.99778 0.015 0 0 -0.346714 0.0353429 
39 1 -0.0696793 0.14901 -0.841132 0 -0.5 -7.99759 0.025 0 0 -1.60516 0.163625 
103 1 -0.135939 -0.0602777 -0.802386 0 -0.5 -7.94991 0.015 0 0 -0.346714 0.0353429 
70 1 -0.107191 -0.0780756 -0.783104 0 -0.5 -7.92607 0.015 0 0 -0.346714 0.0353429 
143 1 -0.11631 0.157682 -0.788646 0 -0.5 -7.93294 0.015 0 0 -0.346714 0.0353429 
28 1 -0.0685748 -0.10193 -0.743506 0 -0.5 -7.87693 0.025 0 0 -1.60516 0.163625 
97 1 -0.0338223 -0.074856 -0.757702 0 -0.5 -7.89458 0.015 0 0 -0.346714 0.0353429 
115 1 -0.076478 -0.0395689 -0.757066 0 -0.5 -7.8938 0.015 0 0 -0.346714 0.0353429 
85 1 -0.13789 0.0820152 -0.753282 0 -0.5 -7.88909 0.015 0 0 -0.346714 0.0353429 
134 1 -0.137197 0.122367 -0.728018 0 -0.5 -7.8576 0.015 0 0 -0.346714 0.0353429 
120 1 -0.148569 0.171261 -0.713799 0 -0.5 -7.83984 0.015 0 0 -0.346714 0.0353429 
77 1 -0.0297287 0.150749 -0.716951 0 -0.5 -7.84377 0.015 0 0 -0.346714 0.0353429 
96 1 -0.131998 -0.0749186 -0.686501 0 -0.5 -7.80561 0.015 0 0 -0.346714 0.0353429 
126 1 -0.128453 -0.000931083 -0.704569 -0.0288748 -0.539424 -7.81243 0.015 0 0 -0.346714 0.0353429 
38 1 -0.121616 -0.0338121 -0.654659 0 -0.5 -7.76548 0.025 0 0 -1.60516 0.163625 
130 1 -0.0642546 -0.0395593 -0.595389 0 -0.5 -7.69024 0.015 0 0 -0.346714 0.0353429 
23 1 -0.134189 0.102519 -0.596769 0 -0.5 -7.69201 0.025 0 0 -1.60516 0.163625 
150 1 -0.100106 -0.0627931 -0.560803 0 -0.5 -7.646 0.015 0 0 -0.346714 0.0353429 
18 1 -0.106015 0.167686 -0.5589 0 -0.5 -7.64355 0.025 0 0 -1.60516 0.163625 
4 1 -0.0330873 0.180857 -0.560109 0 -0.5 -7.64512 0.025 0 0 -1.60516 0.163625 
31 1 -0.140814 -0.0971227 -0.538521 0 -0.5 -7.61735 0.025 0 0 -1.60516 0.163625 
106 1 -0.15705 0.31788 -0.54861 -0.0998962 -0.230395 -7.72609 0.015 0 0 -0.346714 0.0353429 
110 1 -0.0868918 -0.107583 -0.49836 0 -0.5 -7.56546 0.015 0 0 -0.346714 0.0353429 
93 1 -0.0244706 -0.0958422 -0.478047 0 -0.5 -7.53907 0.015 0 0 -0.346714 0.0353429 
17 1 -0.134634 0.0180265 -0.467803 0 -0.5 -7.52573 0.025 0 0 -1.60516 0.163625 
136 1 -0.0832352 0.111008 -0.472768 0 -0.5 -7.5322 0.015 0 0 -0.346714 0.0353429 
30 1 -0.0481876 0.138857 -0.460955 0 -0.5 -7.5168 0.025 0 0 -1.60516 0.163625 
109 1 -0.0676248 0.18608 -0.462545 0 -0.5 -7.51886 0.015 0 0 -0.346714 0.0353429 
1 1 -0.153543 0.417553 -0.4323 -0.021394 -0.0706631 -7.59105 0.025 0 0 -1.60516 0.163625 
108 1 -0.089121 -0.0751765 -0.399273 0 -0.5 -7.43587 0.015 0 0 -0.346714 0.0353429 
69 1 -0.020474 -0.0549175 -0.366287 0 -0.5 -7.39221 0.015 0 0 -0.346714 0.0353429 
149 1 -0.00757836 0.0452823 -0.351006 0.199959 -0.45766 -7.52581 0.015 0 0 -0.346714 0.0353429 
35 1 -0.146938 0.118792 -0.356469 0 -0.5 -7.37917 0.025 0 0 -1.60516 0.163625 
22 1 -0.102489 0.0503065 -0.318585 0 -0.5 -7.32864 0.025 0 0 -1.60516 0.163625 
102 1 -0.11709 -0.0751005 -0.310892 0 -0.5 -7.31834 0.015 0 0 -0.346714 0.0353429 
14 1 -0.0571303 -0.0830245 -0.295041 0 -0.5 -7.29706 0.025 0 0 -1.60516 0.163625 
139 1 -0.104092 -0.017428 -0.311122 0 -0.5 -7.31864 0.015 0 0 -0.346714 0.0353429 
144 1 -0.0691235 -0.0145259 -0.312501 0 -0.5 -7.3205 0.015 0 0 -0.346714 0.0353429 
55 1 -0.0960011 0.156403 -0.288132 -7.52477e-06 -0.49998 -7.28777 0.015 0 0 -0.346714 0.0353429 
141 1 -0.136875 -0.00173577 -0.273412 0 -0.5 -7.26792 0.015 0 0 -0.346714 0.0353429 
87 1 -0.113676 0.119588 -0.230485 0 -0.5 -7.20975 0.015 0 0 -0.346714 0.0353429 
94 1 -0.300364 0.187066 -0.241671 -0.356499 -0.190573 -7.27531 0.015 0 0 -0.346714 0.0353429 
21 1 -0.0470047 0.2015 -0.252096 0 -0.5 -7.23908 0.025 0 0 -1.60516 0.163625 
107 1 -0.141609 -0.0860523 -0.191907 0 -0.5 -7.15707 0.015 0 0 -0.346714 0.0353429 
147 1 -0.100309 0.189431 -0.168777 0 -0.5 -7.12528 0.015 0 0 -0.346714 0.0353429 
112 1 -0.073338 -0.00272127 -0.153764 0 -0.5 -7.10458 0.015 0 0 -0.346714 0.0353429 
84 1 -0.116406 0.0777863 -0.158803 0 -0.5 -7.11155 0.015 0 0 -0.346714 0.0353429 
142 1 -0.0724928 -0.0612522 -0.122172 0 -0.5 -7.06083 0.015 0 0 -0.346714 0.0353429 
47 1 -0.140465 0.16145 -0.122032 0 -0.5 -7.06064 0.025 0 0 -1.60516 0.163625 
145 1 -0.0934491 0.154113 -0.11906 0 -0.5 -7.05652 0.015 0 0 -0.346714 0.0353429 
6 1 -0.0581153 -0.00362222 -0.0895154 0.101461 -0.428163 -7.02001 0.025 0 0 -1.60516 0.163625 
80 1 -0.102893 0.124893 -0.0959658 0 -0.5 -7.02434 0.015 0 0 -0.346714 0.0353429 
32 1 -0.180608 -0.0881454 -0.0497696 -0.0613285 -0.540948 -6.95707 0.025 0 0 -1.60516 0.163625 
135 1 -0.140472 0.00689256 -0.0536657 0 -0.5 -6.96499 0.015 0 0 -0.346714 0.0353429 
62 1 -0.0849655 0.214406 -0.054069 0 -0.5 -6.96558 0.015 0 0 -0.346714 0.0353429 
280 1 -0.118838 0.435643 -0.0440199 -0.323138 -0.0374805 -7.02766 0.015 0 0 -0.346714 0.0353429 
138 1 -0.0317395 -0.0586844 -0.0258853 0 -0.5 -6.92575 0.015 0 0 -0.346714 0.0353429 
128 1 -0.145291 0.0916768 -0.0234524 0 -0.5 -6.92231 0.015 0 0 -0.346714 0.0353429 
15 1 -0.0712257 0.105829 -0.0359251 0.0430154 -0.390763 -6.91281 0.025 0 0 -1.60516 0.163625 
121 1 -0.0679495 0.196078 0.00588221 0 -0.5 -6.88062 0.015 0 0 -0.346714 0.0353429 
129 1 -0.0553418 -0.0348006 0.0597868 0 -0.5 -6.80332 0.015 0 0 -0.346714 0.0353429 
101 1 -0.102489 0.0578245 0.0752755 0 -0.5 -6.78095 0.015 0 0 -0.346714 0.0353429 
37 1 -0.0716655 0.160665 0.0744614 0 -0.5 -6.78213 0.025 0 0 -1.60516 0.163625 
61 1 -0.0231802 -0.0650652 0.097875 0 -0.5 -6.74819 0.015 0 0 -0.346714 0.0353429 
79 1 -0.0179342 -0.0310157 0.0980023 0 -0.5 -6.74799 0.015 0 0 -0.346714 0.0353429 
13 1 -0.146779 0.0478211 0.0812515 0 -0.5 -6.77232 0.025 0 0 -1.60516 0.163625 
91 1 -0.124131 0.154132 0.0986788 0 -0.5 -6.74701 0.015 0 0 -0.346714 0.0353429 
46 1 -0.032303 0.222569 0.0821265 0 -0.5 -6.77104 0.025 0 0 -1.60516 0.163625 
52 1 -0.100497 -0.0495105 0.109996 0 -0.5 -6.73053 0.015 0 0 -0.346714 0.0353429 
5 1 -0.137704 -0.0215882 0.12573 0 -0.5 -6.70757 0.025 0 0 -1.60516 0.163625 
7 1 -0.0712578 0.0174494 0.130623 0 -0.5 -6.70041 0.025 0 0 -1.60516 0.163625 
20 1 -0.124339 0.105888 0.120836 0 -0.5 -6.71474 0.025 0 0 -1.60516 0.163625 
86 1 -0.142939 0.147059 0.182184 0 -0.5 -6.62448 0.015 0 0 -0.346714 0.0353429 
9 1 -0.0320364 0.181159 0.187223 0 -0.5 -6.61703 0.025 0 0 -1.60516 0.163625 
65 1 -0.147981 -0.0449033 0.227853 0 -0.5 -6.5565 0.015 0 0 -0.346714 0.0353429 
58 1 -0.0969698 0.0518907 0.207681 0 -0.5 -6.58662 0.015 0 0 -0.346714 0.0353429 
124 1 -0.136447 0.177377 0.207491 0 -0.5 -6.58691 0.015 0 0 -0.346714 0.0353429 
41 1 -0.107908 0.232758 0.224058 0 -0.5 -6.56219 0.025 0 0 -1.60516 0.163625 
104 1 -0.138444 0.119217 0.282648 0 -0.5 -6.474 0.015 0 0 -0.346714 0.0353429 
131 1 -0.025873 0.22004 0.268638 0 -0.5 -6.49519 0.015 0 0 -0.346714 0.0353429 
132 1 -0.0234712 -0.0118319 0.310086 0 -0.5 -6.43231 0.015 0 0 -0.346714 0.0353429 
48 1 -0.144727 0.045852 0.308916 0 -0.5 -6.43407 0.025 0 0 -1.60516 0.163625 
53 1 -0.106432 0.0903403 0.312015 0 -0.5 -6.42936 0.015 0 0 -0.346714 0.0353429 
49 1 -0.0613084 -0.0342895 0.338919 0 -0.5 -6.38816 0.025 0 0 -1.60516 0.163625 
16 1 -0.129915 0.189079 0.343464 0 -0.5 -6.3812 0.025 0 0 -1.60516 0.163625 
27 1 -0.0637137 0.215885 0.344412 0 -0.5 -6.37972 0.025 0 0 -1.60516 0.163625 
82 1 -0.0851821 0.179627 0.352705 0 -0.5 -6.36697 0.015 0 0 -0.346714 0.0353429 
63 1 -0.147823 0.245713 0.366294 0 -0.5 -6.34598 0.015 0 0 -0.346714 0.0353429 
25 1 -0.104447 -0.000214676 0.408102 0 -0.5 -6.28103 0.025 0 0 -1.60516 0.163625 
127 1 -0.0304133 0.0116212 0.39167 0 -0.5 -6.30664 0.015 0 0 -0.346714 0.0353429 
56 1 -0.11556 0.243119 0.391474 0 -0.5 -6.30693 0.015 0 0 -0.346714 0.0353429 
42 1 -0.132916 0.0927956 0.429016 0 -0.5 -6.24827 0.025 0 0 -1.60516 0.163625 
123 1 -0.11925 0.149492 0.434321 0 -0.5 -6.23993 0.015 0 0 -0.346714 0.0353429 
125 1 -0.0960051 0.205127 0.457111 0 -0.5 -6.20403 0.015 0 0 -0.346714 0.0353429 
64 1 -0.145219 0.213177 0.454424 0 -0.5 -6.20824 0.015 0 0 -0.346714 0.0353429 
392 1 -0.0201822 -0.0366234 0.478515 0 -0.5 -6.17008 0.015 0 0 -0.346714 0.0353429 
361 1 -0.0655065 -0.0088406 0.474928 0 -0.5 -6.17577 0.015 0 0 -0.346714 0.0353429 
375 1 -0.132504 0.0282129 0.48849 0 -0.5 -6.15419 0.015 0 0 -0.346714 0.0353429 
391 1 -0.0665259 0.19019 0.476899 0 -0.5 -6.17263 0.015 0 0 -0.346714 0.0353429 
353 1 -0.0778865 0.0445101 0.515955 0 -0.5 -6.11024 0.015 0 0 -0.346714 0.0353429 
423 1 -0.035066 0.208352 0.531089 0 -0.5 -6.08591 0.015 0 0 -0.346714 0.0353429 
370 1 -0.0476722 0.262061 0.515914 0 -0.5 -6.11034 0.015 0 0 -0.346714 0.0353429 
449 1 -0.121601 -0.0310298 0.549121 0 -0.5 -6.05678 0.015 0 0 -0.346714 0.0353429 
432 1 -0.110656 0.104023 0.533451 0 -0.5 -6.08209 0.015 0 0 -0.346714 0.0353429 
348 1 -0.0495567 -0.0222905 0.574605 -0.0150753 -0.514502 -6.01263 0.025 0 0 -1.60516 0.163625 
409 1 -0.1116 0.0762793 0.583897 0 -0.5 -6.00017 0.015 0 0 -0.346714 0.0353429 
434 1 -0.110177 0.236235 0.580842 0 -0.5 -6.00518 0.015 0 0 -0.346714 0.0353429 
304 1 -0.147639 0.202299 0.617822 0 -0.5 -5.94445 0.025 0 0 -1.60516 0.163625 
327 1 -0.047146 0.239396 0.654089 0 -0.5 -5.88432 0.025 0 0 -1.60516 0.163625 
368 1 -0.0426125 0.0141031 0.68373 0 -0.5 -5.83468 0.015 0 0 -0.346714 0.0353429 
414 1 -0.12165 0.146412 0.661011 0 -0.5 -5.87274 0.015 0 0 -0.346714 0.0353429 
416 1 -0.148865 0.167752 0.677073 0 -0.5 -5.84586 0.015 0 0 -0.346714 0.0353429 
422 1 -0.0856494 0.230628 0.681405 0 -0.5 -5.8386 0.015 0 0 -0.346714 0.0353429 
328 1 -0.101567 0.0393596 0.704563 0 -0.5 -5.79956 0.025 0 0 -1.60516 0.163625 
342 1 -0.0942786 0.190007 0.706116 0 -0.5 -5.79691 0.025 0 0 -1.60516 0.163625 
440 1 -0.074831 -0.00936675 0.736475 0 -0.5 -5.74531 0.015 0 0 -0.346714 0.0353429 
307 1 -0.141488 0.00831636 0.719316 0 -0.5 -5.77454 0.025 0 0 -1.60516 0.163625 
441 1 -0.0895132 0.268957 0.719828 0 -0.5 -5.77366 0.015 0 0 -0.346714 0.0353429 
388 1 -0.0545692 0.0546855 0.772475 0 -0.5 -5.68351 0.015 0 0 -0.346714 0.0353429 
323 1 -0.131477 0.123813 0.769928 0 -0.5 -5.68792 0.025 0 0 -1.60516 0.163625 
352 1 -0.144025 0.227939 0.750362 0 -0.5 -5.72157 0.015 0 0 -0.346714 0.0353429 
330 1 -0.125578 0.284028 0.756012 0 -0.5 -5.71186 0.025 0 0 -1.60516 0.163625 
406 1 -0.0920408 0.227666 0.783147 0 -0.5 -5.66507 0.015 0 0 -0.346714 0.0353429 
418 1 -0.0554251 0.000940336 0.834285 0 -0.5 -5.57579 0.015 0 0 -0.346714 0.0353429 
318 1 -0.126425 0.201158 0.831228 0 -0.5 -5.58119 0.025 0 0 -1.60516 0.163625 
331 1 -0.138106 -0.00416903 0.851372 0 -0.5 -5.54568 0.025 0 0 -1.60516 0.163625 
395 1 -0.110093 0.0518721 0.843262 0 -0.5 -5.56 0.015 0 0 -0.346714 0.0353429 
336 1 -0.025747 0.234523 0.842141 0 -0.5 -5.56196 0.025 0 0 -1.60516 0.163625 
313 1 -0.0392615 0.0396895 0.868518 0 -0.5 -5.51527 0.025 0 0 -1.60516 0.163625 
374 1 -0.133879 0.261467 0.871536 0 -0.5 -5.50987 0.015 0 0 -0.346714 0.0353429 
310 1 -0.0919271 0.271993 0.895087 0 -0.5 -5.46779 0.025 0 0 -1.60516 0.163625 
315 1 -0.0970947 0.106406 0.898852 0 -0.5 -5.46102 0.025 0 0 -1.60516 0.163625 
445 1 -0.0938501 0.176643 0.918998 0 -0.5 -5.42472 0.015 0 0 -0.346714 0.0353429 
407 1 -0.0713596 0.234089 0.90072 0 -0.5 -5.45768 0.015 0 0 -0.346714 0.0353429 
377 1 -0.128279 0.0237203 0.949282 0 -0.5 -5.36969 0.015 0 0 -0.346714 0.0353429 
386 1 -0.118095 0.24511 0.94411 0 -0.5 -5.3791 0.015 0 0 -0.346714 0.0353429 
344 1 -0.147144 0.177445 0.97024 0 -0.5 -5.33123 0.025 0 0 -1.60516 0.163625 
302 1 -0.0567477 0.0213163 0.994769 0 -0.5 -5.28591 0.025 0 0 -1.60516 0.163625 
401 1 -0.0913429 0.0527804 0.992181 0 -0.5 -5.29072 0.015 0 0 -0.346714 0.0353429 
314 1 -0.136534 0.0892362 1.00648 0 -0.5 -5.26413 0.025 0 0 -1.60516 0.163625 
439 1 -0.132801 0.139897 0.988259 0 -0.5 -5.29797 0.015 0 0 -0.346714 0.0353429 
431 1 -0.13363 0.0496506 1.04371 0 -0.5 -5.19428 0.015 0 0 -0.346714 0.0353429 
355 1 -0.0483468 0.0687585 1.03419 0 -0.5 -5.21224 0.015 0 0 -0.346714 0.0353429 
354 1 -0.0927402 0.237498 1.04164 0 -0.5 -5.19821 0.015 0 0 -0.346714 0.0353429 
413 1 -0.0512121 0.238816 1.02615 0 -0.5 -5.22734 0.015 0 0 -0.346714 0.0353429 
442 1 -0.149932 0.298171 1.02788 0 -0.5 -5.22411 0.015 0 0 -0.346714 0.0353429 
408 1 -0.087028 0.306439 1.03971 0 -0.5 -5.20184 0.015 0 0 -0.346714 0.0353429 
446 1 -0.116317 0.206626 1.07167 0 -0.5 -5.14121 0.015 0 0 -0.346714 0.0353429 
382 1 -0.103607 0.33219 1.0564 0.026541 -0.439017 -5.23743 0.015 0 0 -0.346714 0.0353429 
411 1 -0.0485728 0.289056 1.08199 0 -0.5 -5.12149 0.015 0 0 -0.346714 0.0353429 
427 1 -0.0880397 0.396498 1.08532 0.0988458 -0.172977 -5.27466 0.015 0 0 -0.346714 0.0353429 
399 1 -0.074527 0.0720481 1.12627 0 -0.5 -5.03595 0.015 0 0 -0.346714 0.0353429 
436 1 -0.0854574 0.126951 1.12541 0 -0.5 -5.03762 0.015 0 0 -0.346714 0.0353429 
341 1 -0.148816 0.240228 1.12894 0 -0.5 -5.03075 0.025 0 0 -1.60516 0.163625 
389 1 -0.0230912 0.313676 1.13045 0 -0.5 -5.02781 0.015 0 0 -0.346714 0.0353429 
324 1 -0.0498553 0.0267032 1.15418 0 -0.5 -4.98131 0.025 0 0 -1.60516 0.163625 
350 1 -0.147794 0.0593949 1.14143 0 -0.5 -5.00632 0.025 0 0 -1.60516 0.163625 
437 1 -0.0723044 0.103232 1.16397 0 -0.5 -4.96198 0.015 0 0 -0.346714 0.0353429 
335 1 -0.126459 0.120418 1.14115 0 -0.5 -5.00691 0.025 0 0 -1.60516 0.163625 
385 1 -0.0696212 0.249365 1.14994 0 -0.5 -4.98965 0.015 0 0 -0.346714 0.0353429 
384 1 -0.183195 0.336708 1.14268 -0.135564 -0.440896 -5.02075 0.015 0 0 -0.346714 0.0353429 
394 1 -0.145405 0.278684 1.19488 0 -0.5 -4.90047 0.015 0 0 -0.346714 0.0353429 
358 1 -0.127277 0.0507924 1.22808 0 -0.5 -4.83357 0.015 0 0 -0.346714 0.0353429 
367 1 -0.106717 0.0838308 1.20963 0 -0.5 -4.87085 0.015 0 0 -0.346714 0.0353429 
326 1 -0.145564 0.180454 1.2303 0 -0.5 -4.82906 0.025 0 0 -1.60516 0.163625 
424 1 -0.138572 0.317913 1.2178 -0.0730123 -0.390635 -4.8621 0.015 0 0 -0.346714 0.0353429 
319 1 -0.0687817 0.330025 1.22464 0 -0.5 -4.84053 0.025 0 0 -1.60516 0.163625 
426 1 -0.0179373 0.308964 1.20911 0 -0.5 -4.87193 0.015 0 0 -0.346714 0.0353429 
376 1 -0.0824761 0.0957717 1.25437 0 -0.5 -4.77991 0.015 0 0 -0.346714 0.0353429 
433 1 -0.118613 0.0366652 1.28612 0 -0.5 -4.71428 0.015 0 0 -0.346714 0.0353429 
420 1 -0.037203 0.0448256 1.29075 0 -0.5 -4.70467 0.015 0 0 -0.346714 0.0353429 
402 1 -0.101682 0.080287 1.29521 0 -0.5 -4.69535 0.015 0 0 -0.346714 0.0353429 
360 1 -0.116599 0.181221 1.32215 0 -0.5 -4.63874 0.015 0 0 -0.346714 0.0353429 
306 1 -0.116739 0.258034 1.29375 0 -0.5 -4.69839 0.025 0 0 -1.60516 0.163625 
412 1 -0.0937388 0.328584 1.30103 0 -0.5 -4.68318 0.015 0 0 -0.346714 0.0353429 
371 1 -0.0449321 0.308104 1.32005 0 -0.5 -4.64316 0.015 0 0 -0.346714 0.0353429 
363 1 -0.0911777 0.157327 1.32418 0 -0.5 -4.63443 0.015 0 0 -0.346714 0.0353429 
397 1 -0.0557758 0.269618 1.32889 0 -0.5 -4.62442 0.015 0 0 -0.346714 0.0353429 
322 1 -0.131733 0.0675637 1.36231 0 -0.5 -4.553 0.025 0 0 -1.60516 0.163625 
373 1 -0.136858 0.214184 1.37349 0 -0.5 -4.52887 0.015 0 0 -0.346714 0.0353429 
396 1 -0.0958984 0.23466 1.36486 0 -0.5 -4.54751 0.015 0 0 -0.346714 0.0353429 
369 1 -0.138958 0.272563 1.37692 0 -0.5 -4.52142 0.015 0 0 -0.346714 0.0353429 
383 1 -0.0262689 0.290803 1.37824 0 -0.5 -4.51857 0.015 0 0 -0.346714 0.0353429 
381 1 -0.0827007 0.303114 1.35817 0 -0.5 -4.56193 0.015 0 0 -0.346714 0.0353429 
308 1 -0.0797418 0.0820642 1.40555 -0.0168546 -0.516386 -4.45737 0.025 0 0 -1.60516 0.163625 
438 1 -0.0987495 0.166333 1.4069 0 -0.5 -4.45588 0.015 0 0 -0.346714 0.0353429 
415 1 -0.127182 0.11813 1.43196 0 -0.5 -4.40036 0.015 0 0 -0.346714 0.0353429 
343 1 -0.140775 0.176899 1.44062 0 -0.5 -4.38103 0.025 0 0 -1.60516 0.163625 
356 1 -0.111476 0.209564 1.41548 0 -0.5 -4.43695 0.015 0 0 -0.346714 0.0353429 
443 1 -0.0906469 0.264658 1.42949 0 -0.5 -4.40585 0.015 0 0 -0.346714 0.0353429 
340 1 -0.149237 0.337237 1.41486 0 -0.5 -4.43832 0.025 0 0 -1.60516 0.163625 
349 1 -0.116564 0.296594 1.44547 0 -0.5 -4.37015 0.025 0 0 -1.60516 0.163625 
351 1 -0.0409452 0.295112 1.45114 0 -0.5 -4.35739 0.015 0 0 -0.346714 0.0353429 
390 1 -0.0988461 0.0785899 1.47766 0 -0.5 -4.29726 0.015 0 0 -0.346714 0.0353429 
448 1 -0.0329565 0.08757 1.50471 0 -0.5 -4.23506 0.015 0 0 -0.346714 0.0353429 
347 1 -0.0548177 0.12489 1.51173 0 -0.5 -4.21878 0.025 0 0 -1.60516 0.163625 
378 1 -0.121409 0.173198 1.51994 0 -0.5 -4.19965 0.015 0 0 -0.346714 0.0353429 
312 1 -0.134707 0.232718 1.5213 0 -0.5 -4.19651 0.025 0 0 -1.60516 0.163625 
359 1 -0.107325 0.277399 1.53033 0 -0.5 -4.17532 0.015 0 0 -0.346714 0.0353429 
417 1 -0.0160313 0.332054 1.52128 0 -0.5 -4.19651 0.015 0 0 -0.346714 0.0353429 
346 1 -0.153219 0.390821 1.51399 -0.0151472 -0.325165 -4.25494 0.025 0 0 -1.60516 0.163625 
419 1 -0.111609 0.0695188 1.54198 0 -0.5 -4.14785 0.015 0 0 -0.346714 0.0353429 
362 1 -0.0154426 0.119609 1.53848 0 -0.5 -4.15609 0.015 0 0 -0.346714 0.0353429 
421 1 -0.0930175 0.149542 1.55924 0 -0.5 -4.10684 0.015 0 0 -0.346714 0.0353429 
303 1 -0.0551599 0.296479 1.53899 0 -0.5 -4.15491 0.025 0 0 -1.60516 0.163625 
334 1 -0.103439 0.332448 1.55187 0 -0.5 -4.1244 0.025 0 0 -1.60516 0.163625 
320 1 -0.0648735 0.108929 1.62158 0 -0.5 -3.95508 0.025 0 0 -1.60516 0.163625 
325 1 -0.117824 0.193025 1.6041 0 -0.5 -3.99825 0.025 0 0 -1.60516 0.163625 
365 1 -0.14007 0.246583 1.60348 0.0322739 -0.84426 -3.91966 0.015 0 0 -0.346714 0.0353429 
447 1 -0.122284 0.373789 1.62266 0 -0.5 -3.95244 0.015 0 0 -0.346714 0.0353429 
309 1 -0.144284 0.108031 1.64055 0 -0.5 -3.9078 0.025 0 0 -1.60516 0.163625 
430 1 -0.123083 0.155393 1.65333 0 -0.5 -3.87552 0.015 0 0 -0.346714 0.0353429 
372 1 -0.0702168 0.292237 1.62823 0 -0.5 -3.9386 0.015 0 0 -0.346714 0.0353429 
387 1 -0.0901615 0.270452 1.64469 0 -0.5 -3.8974 0.015 0 0 -0.346714 0.0353429 
338 1 -0.0583644 0.361556 1.64288 0 -0.5 -3.90191 0.025 0 0 -1.60516 0.163625 
379 1 -0.0327871 0.110329 1.67527 0 -0.5 -3.81961 0.015 0 0 -0.346714 0.0353429 
403 1 -0.0833248 0.161397 1.6571 0 -0.5 -3.86601 0.015 0 0 -0.346714 0.0353429 
393 1 -0.015571 0.332279 1.67073 0 -0.5 -3.83128 0.015 0 0 -0.346714 0.0353429 
316 1 -0.0983119 0.0941107 1.7174 0 -0.5 -3.70983 0.025 0 0 -1.60516 0.163625 
357 1 -0.0584785 0.159214 1.70966 0 -0.5 -3.73024 0.015 0 0 -0.346714 0.0353429 
329 1 -0.125857 0.372102 1.71449 -0.0138001 -0.485947 -3.71762 0.025 0 0 -1.60516 0.163625 
364 1 -0.0453235 0.124807 1.73249 0 -0.5 -3.66971 0.015 0 0 -0.346714 0.0353429 
321 1 -0.126579 0.165251 1.73373 0 -0.5 -3.66638 0.025 0 0 -1.60516 0.163625 
410 1 -0.145474 0.214536 1.73938 0 -0.5 -3.65127 0.015 0 0 -0.346714 0.0353429 
333 1 -0.0978849 0.227337 1.73494 0 -0.5 -3.66314 0.025 0 0 -1.60516 0.163625 
380 1 -0.127355 0.269976 1.72646 0 -0.5 -3.6858 0.015 0 0 -0.346714 0.0353429 
301 1 -0.086332 0.332248 1.71916 0.012148 -0.512208 -3.70521 0.025 0 0 -1.60516 0.163625 
428 1 -0.0387226 0.344002 1.72518 0 -0.5 -3.68923 0.015 0 0 -0.346714 0.0353429 
450 1 -0.0322061 0.388898 1.72672 0 -0.5 -3.68511 0.015 0 0 -0.346714 0.0353429 
337 1 -0.142368 0.310838 1.75304 0 -0.5 -3.61438 0.025 0 0 -1.60516 0.163625 
332 1 -0.0814262 0.156266 1.80148 0 -0.5 -3.48038 0.025 0 0 -1.60516 0.163625 
400 1 -0.135353 0.199905 1.80605 0 -0.5 -3.46753 0.015 0 0 -0.346714 0.0353429 
425 1 -0.074083 0.102787 1.81922 0 -0.5 -3.43005 0.015 0 0 -0.346714 0.0353429 
311 1 -0.0354402 0.118368 1.83238 0 -0.5 -3.39219 0.025 0 0 -1.60516 0.163625 
317 1 -0.129905 0.242055 1.8281 0 -0.5 -3.40455 0.025 0 0 -1.60516 0.163625 
366 1 -0.144217 0.319022 1.82513 0 -0.5 -3.41308 0.015 0 0 -0.346714 0.0353429 
405 1 -0.038992 0.35339 1.83217 0 -0.5 -3.39277 0.015 0 0 -0.346714 0.0353429 
339 1 -0.0802774 0.36466 1.81856 0 -0.5 -3.43192 0.025 0 0 -1.60516 0.163625 
305 1 -0.0452536 0.401472 1.81922 0 -0.5 -3.43005 0.025 0 0 -1.60516 0.163625 
544 1 -0.0341848 0.455277 1.8188 -0.39021 -0.130746 -3.51349 0.015 0 0 -0.346714 0.0353429 
404 1 -0.119976 0.123844 1.84625 0 -0.5 -3.35187 0.015 0 0 -0.346714 0.0353429 
345 1 -0.128178 0.166674 1.842 0 -0.5 -3.36423 0.025 0 0 -1.60516 0.163625 
435 1 -0.0960728 0.203976 1.84679 0 -0.5 -3.3503 0.015 0 0 -0.346714 0.0353429 
444 1 -0.0159467 0.399826 1.86651 0 -0.5 -3.29203 0.015 0 0 -0.346714 0.0353429 
714 1 -0.0240605 0.168326 1.89067 0 -0.5 -3.21924 0.015 0 0 -0.346714 0.0353429 
675 1 -0.132956 0.365254 1.88327 -0.0349785 -0.349711 -3.34712 0.015 0 0 -0.346714 0.0353429 
634 1 -0.102181 0.388021 1.89687 0 -0.5 -3.2003 0.025 0 0 -1.60516 0.163625 
690 1 -0.0634806 0.366565 1.89528 0 -0.5 -3.20511 0.015 0 0 -0.346714 0.0353429 
676 1 -0.132839 0.195867 1.90261 0 -0.5 -3.18264 0.015 0 0 -0.346714 0.0353429 
652 1 -0.0683105 0.200338 1.91368 0 -0.5 -3.14831 0.015 0 0 -0.346714 0.0353429 
629 1 -0.113195 0.247381 1.92247 0 -0.5 -3.12084 0.025 0 0 -1.60516 0.163625 
669 1 -0.0318411 0.377893 1.91627 0 -0.5 -3.14027 0.015 0 0 -0.346714 0.0353429 
608 1 -0.0938106 0.136793 1.94348 0 -0.5 -3.05404 0.025 0 0 -1.60516 0.163625 
682 1 -0.0469368 0.132781 1.94942 0 -0.5 -3.03491 0.015 0 0 -0.346714 0.0353429 
657 1 -0.0480729 0.170927 1.95599 0 -0.5 -3.01362 0.015 0 0 -0.346714 0.0353429 
606 1 -0.122709 0.322973 1.9457 0.00210743 -0.508228 -3.04117 0.025 0 0 -1.60516 0.163625 
708 1 -0.0786991 0.361401 1.94486 0 -0.5 -3.04962 0.015 0 0 -0.346714 0.0353429 
660 1 -0.0183143 0.374377 1.95848 0 -0.5 -3.00548 0.015 0 0 -0.346714 0.0353429 
701 1 -0.0870486 0.419674 1.94732 0 -0.5 -3.04167 0.015 0 0 -0.346714 0.0353429 
735 1 -0.0832421 0.214669 1.96716 0 -0.5 -2.97703 0.015 0 0 -0.346714 0.0353429 
709 1 -0.101732 0.263531 1.99124 0 -0.5 -2.89658 0.015 0 0 -0.346714 0.0353429 
707 1 -0.0900659 0.163989 2.00801 0 -0.5 -2.8392 0.015 0 0 -0.346714 0.0353429 
618 1 -0.13283 0.181164 1.99709 0 -0.5 -2.87667 0.025 0 0 -1.60516 0.163625 
680 1 -0.0791761 0.218881 2.01745 0 -0.5 -2.80643 0.015 0 0 -0.346714 0.0353429 
649 1 -0.129761 0.297177 2.00881 0 -0.5 -2.83645 0.025 0 0 -1.60516 0.163625 
750 1 -0.0862874 0.328179 1.99851 0 -0.5 -2.87186 0.015 0 0 -0.346714 0.0353429 
677 1 -0.113879 0.154303 2.04502 0 -0.5 -2.70833 0.015 0 0 -0.346714 0.0353429 
640 1 -0.0489559 0.183517 2.02484 0 -0.5 -2.78043 0.025 0 0 -1.60516 0.163625 
616 1 -0.140255 0.389264 2.02534 0 -0.5 -2.77867 0.025 0 0 -1.60516 0.163625 
725 1 -0.0732043 0.391614 2.03859 0 -0.5 -2.73148 0.015 0 0 -0.346714 0.0353429 
712 1 -0.0372677 0.43455 2.03249 0 -0.5 -2.75336 0.015 0 0 -0.346714 0.0353429 
736 1 -0.0864872 0.247793 2.07488 0 -0.5 -2.59797 0.015 0 0 -0.346714 0.0353429 
744 1 -0.107021 0.340725 2.05578 0 -0.5 -2.66909 0.015 0 0 -0.346714 0.0353429 
685 1 -0.0969629 0.387703 2.06904 0 -0.5 -2.61984 0.015 0 0 -0.346714 0.0353429 
748 1 -0.0192599 0.176831 2.11149 0 -0.5 -2.45582 0.015 0 0 -0.346714 0.0353429 
610 1 -0.108705 0.187549 2.09985 0 -0.5 -2.50183 0.025 0 0 -1.60516 0.163625 
692 1 -0.0389882 0.20907 2.09123 0 -0.5 -2.53538 0.015 0 0 -0.346714 0.0353429 
625 1 -0.10705 0.271601 2.10572 0.250947 -0.205125 -2.67125 0.025 0 0 -1.60516 0.163625 
722 1 -0.124711 0.386428 2.09129 0 -0.5 -2.53518 0.015 0 0 -0.346714 0.0353429 
683 1 -0.0829948 0.388592 2.10293 0 -0.5 -2.48976 0.015 0 0 -0.346714 0.0353429 
620 1 -0.0294016 0.419755 2.09776 0 -0.5 -2.51007 0.025 0 0 -1.60516 0.163625 
674 1 -0.11657 0.443544 2.08788 0 -0.5 -2.54833 0.015 0 0 -0.346714 0.0353429 
699 1 -0.0856858 0.44542 2.08633 0 -0.5 -2.55431 0.015 0 0 -0.346714 0.0353429 
732 1 -0.0691875 0.425647 2.10679 0 -0.5 -2.47446 0.015 0 0 -0.346714 0.0353429 
705 1 -0.0946775 0.165279 2.13853 0 -0.5 -2.34526 0.015 0 0 -0.346714 0.0353429 
641 1 -0.144533 0.231514 2.14426 -0.0165282 -0.51578 -2.30947 0.025 0 0 -1.60516 0.163625 
678 1 -0.0973357 0.317233 2.12675 0 -0.5 -2.39402 0.015 0 0 -0.346714 0.0353429 
636 1 -0.149776 0.362476 2.12008 0 -0.5 -2.42119 0.025 0 0 -1.60516 0.163625 
698 1 -0.111785 0.405616 2.14546 0 -0.5 -2.31613 0.015 0 0 -0.346714 0.0353429 
696 1 -0.058387 0.391843 2.13504 0 -0.5 -2.35978 0.015 0 0 -0.346714 0.0353429 
648 1 -0.130879 0.446847 2.14034 0 -0.5 -2.33771 0.025 0 0 -1.60516 0.163625 
644 1 -0.140738 0.175303 2.16816 0 -0.5 -2.21783 0.025 0 0 -1.60516 0.163625 
730 1 -0.0250727 0.177246 2.15828 0 -0.5 -2.26119 0.015 0 0 -0.346714 0.0353429 
637 1 -0.0618774 0.196817 2.16323 0 -0.5 -2.23961 0.025 0 0 -1.60516 0.163625 
729 1 -0.0894542 0.227908 2.16471 0 -0.5 -2.23304 0.015 0 0 -0.346714 0.0353429 
724 1 -0.0903421 0.265009 2.17428 0 -0.5 -2.19066 0.015 0 0 -0.346714 0.0353429 
694 1 -0.138308 0.329231 2.15236 0 -0.5 -2.2867 0.015 0 0 -0.346714 0.0353429 
733 1 -0.0833844 0.362272 2.15296 0 -0.5 -2.28415 0.015 0 0 -0.346714 0.0353429 
639 1 -0.0740184 0.453744 2.16965 0.113569 0.037071 -2.30764 0.025 0 0 -1.60516 0.163625 
684 1 -0.0877228 0.210489 2.19804 0 -0.5 -2.08157 0.015 0 0 -0.346714 0.0353429 
627 1 -0.145048 0.287544 2.20383 -0.00145318 -0.500708 -2.0533 0.025 0 0 -1.60516 0.163625 
745 1 -0.113064 0.305039 2.18336 0.249023 -0.340208 -2.29598 0.015 0 0 -0.346714 0.0353429 
628 1 -0.0871119 0.397356 2.18329 -0.035052 -0.643145 -2.12151 0.025 0 0 -1.60516 0.163625 
679 1 -0.13837 0.180158 2.21296 0 -0.5 -2.00996 0.015 0 0 -0.346714 0.0353429 
691 1 -0.0734004 0.189006 2.2211 -0 0 -2 0.015 0 0 0 0.0353429 
740 1 -0.0241674 0.189645 2.23676 -0 0 -2 0.015 0 0 0 0.0353429 