ITEM: TIMESTEP
28000
ITEM: NUMBER OF ATOMS
300
ITEM: BOX BOUNDS mm mm mm
-1 1
-1 1
-0.05 2.85
ITEM: ATOMS id type x y z vx vy vz radius fx fy fz mass 
68 1 -0.0997213 0.105271 1.3127 0 -0.5 -4.65866 0.015 0 0 -0.346714 0.0353429 
137 1 -0.0877817 0.150905 1.32409 -0.00924354 -0.479856 -4.6358 0.015 0 0 -0.346714 0.0353429 
45 1 -0.0943793 0.0562376 1.3367 0 -0.5 -4.60784 0.025 0 0 -1.60516 0.163625 
122 1 -0.0707412 0.11425 1.33699 0.00811842 -0.517403 -4.60622 0.015 0 0 -0.346714 0.0353429 
43 1 -0.116198 0.207785 1.35441 0 -0.5 -4.56997 0.025 0 0 -1.60516 0.163625 
33 1 -0.129286 0.296605 1.33157 0 -0.5 -4.61873 0.025 0 0 -1.60516 0.163625 
111 1 -0.0487783 0.3401 1.35491 0 -0.5 -4.5689 0.015 0 0 -0.346714 0.0353429 
119 1 -0.0370509 0.0451886 1.3614 0 -0.5 -4.55497 0.015 0 0 -0.346714 0.0353429 
75 1 -0.0493142 0.0956721 1.37587 0 -0.5 -4.52367 0.015 0 0 -0.346714 0.0353429 
89 1 -0.129145 0.124308 1.38121 0 -0.5 -4.5121 0.015 0 0 -0.346714 0.0353429 
78 1 -0.0422369 0.303955 1.3679 0 -0.5 -4.54094 0.015 0 0 -0.346714 0.0353429 
116 1 -0.0077929 0.186706 1.39516 0.36535 -0.287166 -4.59688 0.015 0 0 -0.346714 0.0353429 
59 1 -0.0865612 0.252868 1.39299 0 -0.5 -4.48639 0.015 0 0 -0.346714 0.0353429 
92 1 -0.131017 0.347327 1.40544 0 -0.5 -4.45912 0.015 0 0 -0.346714 0.0353429 
26 1 -0.0805913 0.159491 1.44608 0.14857 -0.341553 -4.42817 0.025 0 0 -1.60516 0.163625 
8 1 -0.104188 0.063463 1.46485 0 -0.5 -4.32639 0.025 0 0 -1.60516 0.163625 
98 1 -0.147127 0.196442 1.45114 0 -0.5 -4.35739 0.015 0 0 -0.346714 0.0353429 
3 1 -0.141317 0.261388 1.47114 0 -0.5 -4.31217 0.025 0 0 -1.60516 0.163625 
151 1 -0.0686397 0.278527 1.45067 0 -0.5 -4.35847 0.015 0 0 -0.346714 0.0353429 
100 1 -0.0681017 0.131921 1.49743 0 -0.5 -4.25193 0.015 0 0 -0.346714 0.0353429 
140 1 -0.125739 0.173556 1.49355 0 -0.5 -4.26086 0.015 0 0 -0.346714 0.0353429 
72 1 -0.105673 0.298796 1.48192 0 -0.5 -4.28754 0.015 0 0 -0.346714 0.0353429 
40 1 -0.104474 0.350198 1.49444 0 -0.5 -4.2588 0.025 0 0 -1.60516 0.163625 
118 1 -0.0372647 0.333681 1.5015 0 -0.5 -4.24252 0.015 0 0 -0.346714 0.0353429 
117 1 -0.0596227 0.0750208 1.51342 0 -0.5 -4.21485 0.015 0 0 -0.346714 0.0353429 
51 1 -0.154511 0.0923966 1.53186 -0.0265052 -0.519812 -4.16295 0.025 0 0 -1.60516 0.163625 
148 1 -0.143105 0.194599 1.54405 -0.171679 -0.397353 -4.26419 0.015 0 0 -0.346714 0.0353429 
11 1 -0.102923 0.237127 1.5726 0.022917 -0.457889 -4.10167 0.025 0 0 -1.60516 0.163625 
90 1 -0.146535 0.351667 1.55841 0 -0.5 -4.10881 0.015 0 0 -0.346714 0.0353429 
60 1 -0.0770515 0.0839276 1.57354 0 -0.5 -4.07251 0.015 0 0 -0.346714 0.0353429 
105 1 -0.144475 0.215706 1.60294 -0.321192 -0.368687 -3.98538 0.015 0 0 -0.346714 0.0353429 
74 1 -0.0790012 0.295893 1.59942 0 -0.5 -4.00973 0.015 0 0 -0.346714 0.0353429 
50 1 -0.130982 0.308355 1.57464 0 -0.5 -4.06986 0.025 0 0 -1.60516 0.163625 
44 1 -0.125916 0.0755965 1.6181 0 -0.5 -3.96372 0.025 0 0 -1.60516 0.163625 
36 1 -0.103411 0.122312 1.63317 0 -0.5 -3.92624 0.025 0 0 -1.60516 0.163625 
76 1 -0.0202065 0.32407 1.61064 0 -0.5 -3.98216 0.015 0 0 -0.346714 0.0353429 
29 1 -0.0788351 0.338182 1.62896 0 -0.5 -3.93674 0.025 0 0 -1.60516 0.163625 
54 1 -0.143574 0.161727 1.64554 -0.0956439 -0.529683 -3.87494 0.015 0 0 -0.346714 0.0353429 
114 1 -0.0719658 0.152405 1.65794 -0.00040144 -0.499666 -3.86403 0.015 0 0 -0.346714 0.0353429 
146 1 -0.109965 0.0889163 1.69428 0 -0.5 -3.77046 0.015 0 0 -0.346714 0.0353429 
73 1 -0.0639552 0.101767 1.67887 0 -0.5 -3.81039 0.015 0 0 -0.346714 0.0353429 
2 1 -0.110349 0.249071 1.68282 0 -0.5 -3.80018 0.025 0 0 -1.60516 0.163625 
12 1 -0.0363281 0.358336 1.69324 0 -0.5 -3.77321 0.025 0 0 -1.60516 0.163625 
113 1 -0.118506 0.373198 1.67447 0 -0.5 -3.82167 0.015 0 0 -0.346714 0.0353429 
99 1 -0.146283 0.153517 1.72159 0 -0.5 -3.69875 0.015 0 0 -0.346714 0.0353429 
57 1 -0.120673 0.205061 1.71286 0 -0.5 -3.7218 0.015 0 0 -0.346714 0.0353429 
88 1 -0.0666498 0.315919 1.70538 0 -0.5 -3.74152 0.015 0 0 -0.346714 0.0353429 
66 1 -0.0281121 0.140823 1.75083 0 -0.5 -3.62037 0.015 0 0 -0.346714 0.0353429 
19 1 -0.0715757 0.163252 1.7481 0 -0.5 -3.62772 0.025 0 0 -1.60516 0.163625 
83 1 -0.108229 0.183146 1.74553 0 -0.5 -3.63469 0.015 0 0 -0.346714 0.0353429 
10 1 -0.0869435 0.289155 1.74776 0.0800593 -0.36273 -3.74563 0.025 0 0 -1.60516 0.163625 
34 1 -0.138562 0.322511 1.74164 0 -0.5 -3.64519 0.025 0 0 -1.60516 0.163625 
81 1 -0.051385 0.323999 1.75342 0 -0.5 -3.6133 0.015 0 0 -0.346714 0.0353429 
71 1 -0.145263 0.366198 1.75651 0 -0.5 -3.60497 0.015 0 0 -0.346714 0.0353429 
67 1 -0.0183057 0.0963887 1.76858 0 -0.5 -3.57191 0.015 0 0 -0.346714 0.0353429 
24 1 -0.138394 0.123452 1.77724 0 -0.5 -3.54807 0.025 0 0 -1.60516 0.163625 
133 1 -0.127566 0.239944 1.78333 0 -0.5 -3.53119 0.015 0 0 -0.346714 0.0353429 
95 1 -0.10482 0.327312 1.78576 0 -0.5 -3.52442 0.015 0 0 -0.346714 0.0353429 
39 1 -0.0696793 0.37701 1.78584 0 -0.5 -3.52423 0.025 0 0 -1.60516 0.163625 
103 1 -0.135939 0.167722 1.80285 0 -0.5 -3.47655 0.015 0 0 -0.346714 0.0353429 
70 1 -0.107191 0.149924 1.81126 0 -0.5 -3.45271 0.015 0 0 -0.346714 0.0353429 
143 1 -0.11631 0.385682 1.80885 0 -0.5 -3.45958 0.015 0 0 -0.346714 0.0353429 
28 1 -0.0685748 0.12607 1.82845 0 -0.5 -3.40357 0.025 0 0 -1.60516 0.163625 
97 1 -0.0338223 0.153144 1.8223 0 -0.5 -3.42122 0.015 0 0 -0.346714 0.0353429 
115 1 -0.076478 0.188431 1.82258 0 -0.5 -3.42044 0.015 0 0 -0.346714 0.0353429 
126 1 -0.115286 0.245046 1.83797 -0.0288748 -0.539424 -3.33907 0.015 0 0 -0.346714 0.0353429 
85 1 -0.13789 0.310015 1.82422 0 -0.5 -3.41573 0.015 0 0 -0.346714 0.0353429 
134 1 -0.137197 0.350367 1.83512 0 -0.5 -3.38424 0.015 0 0 -0.346714 0.0353429 
77 1 -0.0297287 0.378749 1.83988 0 -0.5 -3.37041 0.015 0 0 -0.346714 0.0353429 
120 1 -0.148569 0.399261 1.84124 0 -0.5 -3.36648 0.015 0 0 -0.346714 0.0353429 
96 1 -0.131998 0.153081 1.85293 0 -0.5 -3.33225 0.015 0 0 -0.346714 0.0353429 
38 1 -0.121616 0.194188 1.86648 0 -0.5 -3.29212 0.025 0 0 -1.60516 0.163625 
150 1 -0.100106 0.165207 1.90585 0 -0.5 -3.17264 0.015 0 0 -0.346714 0.0353429 
130 1 -0.0642546 0.188441 1.89144 0 -0.5 -3.21688 0.015 0 0 -0.346714 0.0353429 
23 1 -0.134189 0.330519 1.89086 0 -0.5 -3.21865 0.025 0 0 -1.60516 0.163625 
18 1 -0.106015 0.395686 1.90663 0 -0.5 -3.17019 0.025 0 0 -1.60516 0.163625 
4 1 -0.0330873 0.408857 1.90614 0 -0.5 -3.17176 0.025 0 0 -1.60516 0.163625 
31 1 -0.140814 0.130877 1.91507 0 -0.5 -3.14399 0.025 0 0 -1.60516 0.163625 
110 1 -0.0868918 0.120417 1.93156 0 -0.5 -3.0921 0.015 0 0 -0.346714 0.0353429 
93 1 -0.0244706 0.132158 1.93984 0 -0.5 -3.06571 0.015 0 0 -0.346714 0.0353429 
17 1 -0.134634 0.246027 1.944 0 -0.5 -3.05237 0.025 0 0 -1.60516 0.163625 
136 1 -0.0832352 0.339008 1.94199 0 -0.5 -3.05884 0.015 0 0 -0.346714 0.0353429 
108 1 -0.089121 0.152824 1.97156 0 -0.5 -2.96251 0.015 0 0 -0.346714 0.0353429 
30 1 -0.0481876 0.366857 1.94678 0 -0.5 -3.04344 0.025 0 0 -1.60516 0.163625 
109 1 -0.0676248 0.41408 1.94613 0 -0.5 -3.0455 0.015 0 0 -0.346714 0.0353429 
106 1 -0.111497 0.42294 1.95456 -0.0998962 -0.230395 -3.25273 0.015 0 0 -0.346714 0.0353429 
102 1 -0.11709 0.152899 2.00635 0 -0.5 -2.84498 0.015 0 0 -0.346714 0.0353429 
69 1 -0.020474 0.173083 1.98464 0 -0.5 -2.91885 0.015 0 0 -0.346714 0.0353429 
139 1 -0.104092 0.210572 2.00625 0 -0.5 -2.84528 0.015 0 0 -0.346714 0.0353429 
144 1 -0.0691235 0.213474 2.00572 0 -0.5 -2.84714 0.015 0 0 -0.346714 0.0353429 
22 1 -0.102489 0.278306 2.00335 0 -0.5 -2.85528 0.025 0 0 -1.60516 0.163625 
35 1 -0.146938 0.346792 1.9885 0 -0.5 -2.90581 0.025 0 0 -1.60516 0.163625 
14 1 -0.0571303 0.144975 2.01249 0 -0.5 -2.8237 0.025 0 0 -1.60516 0.163625 
141 1 -0.136875 0.226264 2.02083 0 -0.5 -2.79456 0.015 0 0 -0.346714 0.0353429 
87 1 -0.113676 0.347588 2.03723 0 -0.5 -2.73639 0.015 0 0 -0.346714 0.0353429 
55 1 -0.0959977 0.384394 2.01516 -7.52477e-06 -0.49998 -2.81441 0.015 0 0 -0.346714 0.0353429 
1 1 -0.143787 0.449775 2.00929 -0.021394 -0.0706631 -3.11769 0.025 0 0 -1.60516 0.163625 
21 1 -0.0470047 0.4295 2.029 0 -0.5 -2.76572 0.025 0 0 -1.60516 0.163625 
107 1 -0.141609 0.141948 2.05179 0 -0.5 -2.68371 0.015 0 0 -0.346714 0.0353429 
112 1 -0.073338 0.225279 2.066 0 -0.5 -2.63122 0.015 0 0 -0.346714 0.0353429 
149 1 -0.0987597 0.253975 2.06084 0.199959 -0.45766 -3.05245 0.015 0 0 -0.346714 0.0353429 
94 1 -0.137801 0.273968 2.05595 -0.356499 -0.190573 -2.80195 0.015 0 0 -0.346714 0.0353429 
84 1 -0.116406 0.305786 2.06414 0 -0.5 -2.63819 0.015 0 0 -0.346714 0.0353429 
147 1 -0.100309 0.417431 2.06043 0 -0.5 -2.65192 0.015 0 0 -0.346714 0.0353429 
142 1 -0.0724928 0.166748 2.07764 0 -0.5 -2.58747 0.015 0 0 -0.346714 0.0353429 
6 1 -0.104382 0.19162 2.09168 0.101461 -0.428163 -2.54665 0.025 0 0 -1.60516 0.163625 
15 1 -0.0908407 0.284016 2.09639 0.0430154 -0.390763 -2.43945 0.025 0 0 -1.60516 0.163625 
80 1 -0.102893 0.352893 2.08721 0 -0.5 -2.55098 0.015 0 0 -0.346714 0.0353429 
145 1 -0.0934491 0.382113 2.07879 0 -0.5 -2.58316 0.015 0 0 -0.346714 0.0353429 
47 1 -0.140465 0.38945 2.07769 0 -0.5 -2.58728 0.025 0 0 -1.60516 0.163625 
32 1 -0.152642 0.158527 2.10273 -0.0613285 -0.540948 -2.48371 0.025 0 0 -1.60516 0.163625 
138 1 -0.0317395 0.169316 2.11233 0 -0.5 -2.45239 0.015 0 0 -0.346714 0.0353429 
135 1 -0.140472 0.234893 2.10244 0 -0.5 -2.49163 0.015 0 0 -0.346714 0.0353429 
128 1 -0.145291 0.319677 2.1132 0 -0.5 -2.44895 0.015 0 0 -0.346714 0.0353429 
62 1 -0.0849655 0.442406 2.10231 0 -0.5 -2.49222 0.015 0 0 -0.346714 0.0353429 
121 1 -0.0679495 0.424078 2.12352 0 -0.5 -2.40726 0.015 0 0 -0.346714 0.0353429 
61 1 -0.0231802 0.162935 2.15512 0 -0.5 -2.27483 0.015 0 0 -0.346714 0.0353429 
5 1 -0.137704 0.206412 2.16446 0 -0.5 -2.23421 0.025 0 0 -1.60516 0.163625 
52 1 -0.100497 0.17849 2.15919 0 -0.5 -2.25717 0.015 0 0 -0.346714 0.0353429 
129 1 -0.0553418 0.193199 2.14217 0 -0.5 -2.32996 0.015 0 0 -0.346714 0.0353429 
79 1 -0.0179342 0.196984 2.15516 0 -0.5 -2.27463 0.015 0 0 -0.346714 0.0353429 
13 1 -0.146779 0.275821 2.1495 0 -0.5 -2.29896 0.025 0 0 -1.60516 0.163625 
101 1 -0.102489 0.285824 2.14746 0 -0.5 -2.30759 0.015 0 0 -0.346714 0.0353429 
20 1 -0.124339 0.333888 2.16283 0 -0.5 -2.24138 0.025 0 0 -1.60516 0.163625 
91 1 -0.124131 0.382132 2.15539 0 -0.5 -2.27365 0.015 0 0 -0.346714 0.0353429 
37 1 -0.0716655 0.388665 2.14719 0 -0.5 -2.30877 0.025 0 0 -1.60516 0.163625 
46 1 -0.032303 0.450569 2.1498 0 -0.5 -2.29768 0.025 0 0 -1.60516 0.163625 
7 1 -0.0712578 0.245449 2.16609 0 -0.5 -2.22705 0.025 0 0 -1.60516 0.163625 
58 1 -0.0969698 0.279891 2.19125 0 -0.5 -2.11326 0.015 0 0 -0.346714 0.0353429 
86 1 -0.142939 0.375059 2.18302 0 -0.5 -2.15112 0.015 0 0 -0.346714 0.0353429 
124 1 -0.136447 0.405377 2.1912 0 -0.5 -2.11355 0.015 0 0 -0.346714 0.0353429 
9 1 -0.0320364 0.409159 2.18466 0 -0.5 -2.14367 0.025 0 0 -1.60516 0.163625 
65 1 -0.147981 0.183097 2.19769 0 -0.5 -2.08314 0.015 0 0 -0.346714 0.0353429 
132 1 -0.0234712 0.214078 2.22338 -0 0 -2 0.015 0 0 0 0.0353429 
48 1 -0.144727 0.271852 2.22301 -0 0 -2 0.025 0 0 0 0.163625 
53 1 -0.106432 0.3161 2.22398 -0 0 -2 0.015 0 0 0 0.0353429 
104 1 -0.138444 0.347217 2.21486 0 -0.5 -2.00064 0.015 0 0 -0.346714 0.0353429 
131 1 -0.025873 0.44804 2.21052 0 -0.5 -2.02183 0.015 0 0 -0.346714 0.0353429 
41 1 -0.107908 0.460758 2.19649 0 -0.5 -2.08883 0.025 0 0 -1.60516 0.163625 
49 1 -0.0613084 0.18937 2.23236 -0 0 -2 0.025 0 0 0 0.163625 
25 1 -0.104447 0.217985 2.25421 -0 0 -2 0.025 0 0 0 0.163625 
127 1 -0.0304133 0.231126 2.24899 -0 0 -2 0.015 0 0 0 0.0353429 
16 1 -0.129915 0.412384 2.2338 -0 0 -2 0.025 0 0 0 0.163625 
82 1 -0.0851821 0.402207 2.23669 -0 0 -2 0.015 0 0 0 0.0353429 
27 1 -0.0637137 0.439115 2.23409 -0 0 -2 0.025 0 0 0 0.163625 
63 1 -0.147823 0.467223 2.24096 -0 0 -2 0.015 0 0 0 0.0353429 
56 1 -0.11556 0.462639 2.24892 -0 0 -2 0.015 0 0 0 0.0353429 
42 1 -0.132916 0.309326 2.26088 -0 0 -2 0.025 0 0 0 0.163625 
123 1 -0.11925 0.365597 2.26258 -0 0 -2 0.015 0 0 0 0.0353429 
125 1 -0.0960051 0.419402 2.26992 -0 0 -2 0.015 0 0 0 0.0353429 
64 1 -0.145219 0.427667 2.26904 -0 0 -2 0.015 0 0 0 0.0353429 
289 1 0.0973431 0.256395 1.21732 0.0203384 -0.134604 -5.03695 0.015 0 0 -0.346714 0.0353429 
284 1 0.072469 0.0599121 1.30823 -0.0310215 -0.613333 -4.73167 0.015 0 0 -0.346714 0.0353429 
203 1 0.0667127 0.0432328 1.33454 0 -0.5 -4.61245 0.015 0 0 -0.346714 0.0353429 
206 1 0.0948757 0.0873295 1.33677 0.057048 -0.582454 -4.65613 0.015 0 0 -0.346714 0.0353429 
237 1 0.123162 0.106519 1.35221 0.0724848 -0.475593 -4.56113 0.015 0 0 -0.346714 0.0353429 
199 1 0.0901052 0.1823 1.33815 -0.00278668 -0.321029 -4.70861 0.025 0 0 -1.60516 0.163625 
214 1 0.144386 0.229733 1.34309 0 -0.5 -4.59421 0.015 0 0 -0.346714 0.0353429 
171 1 0.0955264 0.245107 1.35679 0 -0.5 -4.56487 0.025 0 0 -1.60516 0.163625 
213 1 0.0350777 0.28257 1.33466 0 -0.5 -4.61216 0.015 0 0 -0.346714 0.0353429 
226 1 0.110692 0.291304 1.35237 0 -0.5 -4.57439 0.015 0 0 -0.346714 0.0353429 
272 1 0.0168276 0.317548 1.33043 0 -0.5 -4.62118 0.015 0 0 -0.346714 0.0353429 
241 1 0.0849537 0.313018 1.34718 0 -0.5 -4.58547 0.015 0 0 -0.346714 0.0353429 
259 1 0.149131 0.0838265 1.35739 0 -0.5 -4.5636 0.015 0 0 -0.346714 0.0353429 
263 1 0.025742 0.104494 1.36803 0 -0.5 -4.54064 0.015 0 0 -0.346714 0.0353429 
220 1 0.0231404 0.0640405 1.39253 -0.0669262 -0.554313 -4.47843 0.015 0 0 -0.346714 0.0353429 
177 1 0.149923 0.207555 1.39286 0.112606 -0.398162 -4.49344 0.025 0 0 -1.60516 0.163625 
290 1 0.146585 0.257954 1.42488 0.0439512 -0.299137 -4.36708 0.015 0 0 -0.346714 0.0353429 
249 1 0.0491797 0.283421 1.44385 0 -0.5 -4.37377 0.015 0 0 -0.346714 0.0353429 
166 1 0.0609489 0.347253 1.42911 0 -0.5 -4.40674 0.025 0 0 -1.60516 0.163625 
184 1 0.11251 0.345841 1.42376 0 -0.5 -4.41861 0.025 0 0 -1.60516 0.163625 
222 1 0.123753 0.0856614 1.47254 0 -0.5 -4.30893 0.015 0 0 -0.346714 0.0353429 
216 1 0.0862548 0.0882574 1.47697 0.0481324 -0.610657 -4.27081 0.015 0 0 -0.346714 0.0353429 
270 1 0.0946744 0.275669 1.45532 0 -0.5 -4.34797 0.015 0 0 -0.346714 0.0353429 
294 1 0.128315 0.308152 1.46892 0 -0.5 -4.31717 0.015 0 0 -0.346714 0.0353429 
180 1 0.0404921 0.101657 1.50504 -0.021889 -0.504465 -4.22622 0.025 0 0 -1.60516 0.163625 
253 1 0.123075 0.193069 1.50798 0 -0.5 -4.22751 0.015 0 0 -0.346714 0.0353429 
170 1 0.168284 0.261908 1.4932 0.161731 -0.381986 -4.28051 0.025 0 0 -1.60516 0.163625 
231 1 0.0350342 0.30562 1.50312 0 -0.5 -4.23879 0.015 0 0 -0.346714 0.0353429 
282 1 0.0418651 0.17541 1.53219 -0.2609 -0.673185 -4.14277 0.015 0 0 -0.346714 0.0353429 
169 1 0.0892107 0.314668 1.52217 0 -0.5 -4.19445 0.025 0 0 -1.60516 0.163625 
209 1 0.0969746 0.0812476 1.54662 0 -0.5 -4.13686 0.015 0 0 -0.346714 0.0353429 
296 1 0.146983 0.197001 1.57696 0 -0.5 -4.06427 0.015 0 0 -0.346714 0.0353429 
278 1 0.113612 0.215965 1.57542 0 -0.5 -4.068 0.015 0 0 -0.346714 0.0353429 
162 1 0.0478022 0.318457 1.60286 0 -0.5 -4.00129 0.025 0 0 -1.60516 0.163625 
257 1 0.139837 0.328641 1.57583 0 -0.5 -4.06702 0.015 0 0 -0.346714 0.0353429 
235 1 0.134937 0.0843847 1.61961 0 -0.5 -3.95999 0.015 0 0 -0.346714 0.0353429 
269 1 0.141487 0.113504 1.60713 0 -0.5 -3.99079 0.015 0 0 -0.346714 0.0353429 
168 1 0.0261487 0.118104 1.60953 0 -0.5 -3.98491 0.025 0 0 -1.60516 0.163625 
185 1 0.0936576 0.162666 1.62535 0 -0.5 -3.94576 0.025 0 0 -1.60516 0.163625 
217 1 0.133752 0.163691 1.61835 0 -0.5 -3.96313 0.015 0 0 -0.346714 0.0353429 
182 1 0.114565 0.273779 1.61518 0 -0.5 -3.97098 0.025 0 0 -1.60516 0.163625 
176 1 0.0399362 0.370472 1.61842 0 -0.5 -3.96293 0.025 0 0 -1.60516 0.163625 
286 1 0.147755 0.36287 1.61747 0 -0.5 -3.96529 0.015 0 0 -0.346714 0.0353429 
153 1 0.0895866 0.0787598 1.64604 0 -0.5 -3.89397 0.025 0 0 -1.60516 0.163625 
211 1 0.0694768 0.136972 1.66235 0 -0.5 -3.85267 0.015 0 0 -0.346714 0.0353429 
251 1 0.126174 0.231559 1.65675 0 -0.5 -3.86689 0.015 0 0 -0.346714 0.0353429 
204 1 0.134881 0.125248 1.69481 0 -0.5 -3.76909 0.015 0 0 -0.346714 0.0353429 
161 1 0.135356 0.18285 1.69395 0 -0.5 -3.77134 0.025 0 0 -1.60516 0.163625 
291 1 0.140432 0.307523 1.67466 0 -0.5 -3.82118 0.015 0 0 -0.346714 0.0353429 
159 1 0.087245 0.366208 1.67577 0 -0.5 -3.81833 0.025 0 0 -1.60516 0.163625 
300 1 0.149285 0.36024 1.68643 0 -0.5 -3.79086 0.015 0 0 -0.346714 0.0353429 
175 1 0.0941494 0.118059 1.72462 0 -0.5 -3.6907 0.025 0 0 -1.60516 0.163625 
230 1 0.118982 0.223372 1.70851 0 -0.5 -3.73328 0.015 0 0 -0.346714 0.0353429 
228 1 0.0279693 0.332593 1.70058 0 -0.5 -3.75408 0.015 0 0 -0.346714 0.0353429 
293 1 0.0548164 0.157145 1.75242 0 -0.5 -3.61605 0.015 0 0 -0.346714 0.0353429 
192 1 0.134392 0.281049 1.74448 0 -0.5 -3.63753 0.025 0 0 -1.60516 0.163625 
285 1 0.0870748 0.318259 1.74586 0 -0.5 -3.63381 0.015 0 0 -0.346714 0.0353429 
256 1 0.0868225 0.350057 1.74134 0 -0.5 -3.64597 0.015 0 0 -0.346714 0.0353429 
275 1 0.0211058 0.364962 1.75754 0 -0.5 -3.60212 0.015 0 0 -0.346714 0.0353429 
246 1 0.0494565 0.38501 1.74648 0 -0.5 -3.63214 0.015 0 0 -0.346714 0.0353429 
240 1 0.0956629 0.38188 1.74843 0 -0.5 -3.62684 0.015 0 0 -0.346714 0.0353429 
250 1 0.138716 0.364193 1.73915 0 -0.5 -3.65186 0.015 0 0 -0.346714 0.0353429 
202 1 0.126943 0.116119 1.78304 0 -0.5 -3.53198 0.015 0 0 -0.346714 0.0353429 
299 1 0.0153001 0.141541 1.75898 0 -0.5 -3.5982 0.015 0 0 -0.346714 0.0353429 
200 1 0.112803 0.174149 1.77253 0 -0.5 -3.56111 0.025 0 0 -1.60516 0.163625 
255 1 0.0340792 0.332865 1.77766 0 -0.5 -3.54689 0.015 0 0 -0.346714 0.0353429 
252 1 0.131256 0.341424 1.77767 0 -0.5 -3.54689 0.015 0 0 -0.346714 0.0353429 
189 1 0.0509787 0.115512 1.81183 0 -0.5 -3.45114 0.025 0 0 -1.60516 0.163625 
245 1 0.0868358 0.141715 1.79198 0 -0.5 -3.50706 0.015 0 0 -0.346714 0.0353429 
247 1 0.0532922 0.169565 1.80642 0 -0.5 -3.46645 0.015 0 0 -0.346714 0.0353429 
287 1 0.130384 0.10635 1.8357 0 -0.5 -3.38257 0.015 0 0 -0.346714 0.0353429 
288 1 0.0326968 0.151446 1.8442 0 -0.5 -3.35785 0.015 0 0 -0.346714 0.0353429 
154 1 0.116388 0.261122 1.82188 0 -0.5 -3.4224 0.025 0 0 -1.60516 0.163625 
295 1 0.103955 0.320828 1.84677 0 -0.5 -3.3503 0.015 0 0 -0.346714 0.0353429 
156 1 0.0411221 0.369187 1.84883 0 -0.5 -3.34431 0.025 0 0 -1.60516 0.163625 
190 1 0.11779 0.374732 1.82976 0 -0.5 -3.39974 0.025 0 0 -1.60516 0.163625 
210 1 0.0872868 0.113386 1.86995 0 -0.5 -3.28173 0.015 0 0 -0.346714 0.0353429 
181 1 0.070397 0.152344 1.87625 0 -0.5 -3.26289 0.025 0 0 -1.60516 0.163625 
165 1 0.148355 0.204191 1.86697 0 -0.5 -3.29065 0.025 0 0 -1.60516 0.163625 
233 1 0.0406697 0.131292 1.91049 0 -0.5 -3.15822 0.015 0 0 -0.346714 0.0353429 
260 1 0.0198171 0.16112 1.8997 0 -0.5 -3.19157 0.015 0 0 -0.346714 0.0353429 
152 1 0.089118 0.219144 1.89401 0 -0.5 -3.20903 0.025 0 0 -1.60516 0.163625 
279 1 0.11959 0.279322 1.90143 0 -0.5 -3.18627 0.015 0 0 -0.346714 0.0353429 
262 1 0.0888361 0.313008 1.90647 0 -0.5 -3.17068 0.015 0 0 -0.346714 0.0353429 
234 1 0.0945525 0.362871 1.90232 0 -0.5 -3.18353 0.015 0 0 -0.346714 0.0353429 
208 1 0.0680799 0.399251 1.90759 0 -0.5 -3.16724 0.015 0 0 -0.346714 0.0353429 
207 1 0.128901 0.330384 1.92115 0 -0.5 -3.12496 0.015 0 0 -0.346714 0.0353429 
223 1 0.0343911 0.412571 1.93342 0 -0.5 -3.08621 0.015 0 0 -0.346714 0.0353429 
194 1 0.131621 0.390036 1.91881 0 -0.5 -3.13232 0.025 0 0 -1.60516 0.163625 
212 1 0.0737637 0.144983 1.9556 0 -0.5 -3.01489 0.015 0 0 -0.346714 0.0353429 
236 1 0.111584 0.158462 1.95562 0 -0.5 -3.0148 0.015 0 0 -0.346714 0.0353429 
242 1 0.131055 0.236908 1.97096 0 -0.5 -2.96447 0.015 0 0 -0.346714 0.0353429 
191 1 0.0609008 0.359599 1.95852 0 -0.5 -3.00538 0.025 0 0 -1.60516 0.163625 
178 1 0.0370442 0.129146 1.98143 0 -0.5 -2.92964 0.025 0 0 -1.60516 0.163625 
224 1 0.132465 0.187362 1.98153 0 -0.5 -2.92925 0.015 0 0 -0.346714 0.0353429 
221 1 0.0987988 0.224271 1.98837 0 -0.5 -2.9063 0.015 0 0 -0.346714 0.0353429 
179 1 0.136485 0.290915 2.00435 0 -0.5 -2.85185 0.025 0 0 -1.60516 0.163625 
258 1 0.135516 0.140979 2.01024 0 -0.5 -2.83154 0.015 0 0 -0.346714 0.0353429 
187 1 0.0681893 0.19489 2.02155 0 -0.5 -2.79201 0.025 0 0 -1.60516 0.163625 
248 1 0.0851139 0.329859 2.0146 0 -0.5 -2.81634 0.015 0 0 -0.346714 0.0353429 
157 1 0.115469 0.379407 2.0243 0 -0.5 -2.7824 0.025 0 0 -1.60516 0.163625 
277 1 0.0674794 0.416305 2.02562 0 -0.5 -2.77769 0.015 0 0 -0.346714 0.0353429 
264 1 0.0357265 0.423028 2.01616 0 -0.5 -2.81094 0.015 0 0 -0.346714 0.0353429 
205 1 0.0941484 0.140831 2.04672 0 -0.5 -2.70215 0.015 0 0 -0.346714 0.0353429 
227 1 0.137271 0.152175 2.05407 0 -0.5 -2.67537 0.015 0 0 -0.346714 0.0353429 
276 1 0.0937292 0.178975 2.06489 0 -0.5 -2.63534 0.015 0 0 -0.346714 0.0353429 
232 1 0.13999 0.214569 2.04059 0 -0.5 -2.72432 0.015 0 0 -0.346714 0.0353429 
172 1 0.140345 0.343514 2.05023 0.205506 -0.272617 -2.9062 0.025 0 0 -1.60516 0.163625 
174 1 0.030822 0.386563 2.04124 0 -0.5 -2.72197 0.025 0 0 -1.60516 0.163625 
201 1 0.0267726 0.15544 2.07271 0 -0.5 -2.60611 0.025 0 0 -1.60516 0.163625 
225 1 0.0772421 0.20211 2.09265 0 -0.5 -2.52989 0.015 0 0 -0.346714 0.0353429 
265 1 0.115746 0.178087 2.09498 0 -0.5 -2.52086 0.015 0 0 -0.346714 0.0353429 
158 1 0.0866624 0.245056 2.0718 0 -0.5 -2.60954 0.025 0 0 -1.60516 0.163625 
271 1 0.0984983 0.284851 2.10118 -0.00761594 -0.521042 -2.49685 0.015 0 0 -0.346714 0.0353429 
254 1 0.137401 0.29274 2.07909 -1.31397e-05 -0.499936 -2.582 0.015 0 0 -0.346714 0.0353429 
274 1 0.109059 0.315326 2.10038 0.00849878 -0.475917 -2.49961 0.015 0 0 -0.346714 0.0353429 
283 1 0.102888 0.414132 2.08819 0 -0.5 -2.54715 0.015 0 0 -0.346714 0.0353429 
173 1 0.0548933 0.436549 2.0925 0 -0.5 -2.53048 0.025 0 0 -1.60516 0.163625 
229 1 0.102013 0.154371 2.11507 0 -0.5 -2.4415 0.015 0 0 -0.346714 0.0353429 
196 1 0.0520917 0.18726 2.12688 0 -0.5 -2.39353 0.025 0 0 -1.60516 0.163625 
183 1 0.0737852 0.376476 2.10576 0 -0.5 -2.47858 0.025 0 0 -1.60516 0.163625 
281 1 0.0312292 0.411757 2.1219 0 -0.5 -2.41383 0.015 0 0 -0.346714 0.0353429 
188 1 0.140755 0.422611 2.12884 0 -0.5 -2.38548 0.025 0 0 -1.60516 0.163625 
163 1 0.107222 0.218031 2.13361 0 -0.5 -2.36577 0.025 0 0 -1.60516 0.163625 
155 1 0.141768 0.28404 2.13446 0 -0.5 -2.36223 0.025 0 0 -1.60516 0.163625 
268 1 0.140569 0.372425 2.14487 0 -0.5 -2.31858 0.015 0 0 -0.346714 0.0353429 
280 1 0.0285134 0.452734 2.14067 -0.323138 -0.0374805 -2.5543 0.015 0 0 -0.346714 0.0353429 
267 1 0.101401 0.447938 2.14411 0 -0.5 -2.32182 0.015 0 0 -0.346714 0.0353429 
218 1 0.0164873 0.207398 2.17454 0 -0.5 -2.18948 0.015 0 0 -0.346714 0.0353429 
298 1 0.114914 0.339821 2.16579 0 -0.5 -2.22833 0.015 0 0 -0.346714 0.0353429 
238 1 0.105443 0.358651 2.19598 0 -0.5 -2.09118 0.015 0 0 -0.346714 0.0353429 
197 1 0.0582202 0.41384 2.16549 0.00113978 -0.501265 -2.2289 0.025 0 0 -1.60516 0.163625 
273 1 0.0779061 0.450083 2.16734 0 -0.5 -2.22146 0.015 0 0 -0.346714 0.0353429 
164 1 0.0527853 0.200126 2.21267 0 -0.5 -2.01143 0.025 0 0 -1.60516 0.163625 
160 1 0.118533 0.217664 2.20628 0 -0.5 -2.04233 0.025 0 0 -1.60516 0.163625 
215 1 0.0767991 0.264474 2.21577 -0 0 -2 0.015 0 0 0 0.0353429 
297 1 0.141884 0.27465 2.21353 0 -0.5 -2.00721 0.015 0 0 -0.346714 0.0353429 
195 1 0.147227 0.357269 2.20233 0 -0.5 -2.06126 0.025 0 0 -1.60516 0.163625 
292 1 0.0287531 0.422464 2.21568 -0 0 -2 0.015 0 0 0 0.0353429 
167 1 0.118751 0.459346 2.20047 0 -0.5 -2.06999 0.025 0 0 -1.60516 0.163625 
261 1 0.0852607 0.230216 2.2309 -0 0 -2 0.015 0 0 0 0.0353429 
239 1 0.126558 0.237343 2.25531 -0 0 -2 0.015 0 0 0 0.0353429 
186 1 0.10183 0.291927 2.24808 -0 0 -2 0.025 0 0 0 0.163625 
243 1 0.113126 0.365244 2.2335 -0 0 -2 0.015 0 0 0 0.0353429 
193 1 0.102412 0.413293 2.22852 -0 0 -2 0.025 0 0 0 0.163625 
244 1 0.0497502 0.427977 2.25171 -0 0 -2 0.015 0 0 0 0.0353429 
198 1 0.0617553 0.466461 2.22862 -0 0 -2 0.025 0 0 0 0.163625 
219 1 0.0278687 0.201322 2.25855 -0 0 -2 0.015 0 0 0 0.0353429 
266 1 0.0917737 0.36017 2.26511 -0 0 -2 0.015 0 0 0 0.0353429 
