ITEM: TIMESTEP
8800
ITEM: NUMBER OF ATOMS
300
ITEM: BOX BOUNDS mm mm mm
-1 1
-1 1
-0.05 2.85
ITEM: ATOMS id type x y z vx vy vz radius fx fy fz mass 
45 1 -0.0943793 0.152238 2.04058 0 -0.5 -2.72432 0.025 0 0 -1.60516 0.163625 
68 1 -0.0997213 0.201271 2.02634 0 -0.5 -2.77514 0.015 0 0 -0.346714 0.0353429 
122 1 -0.0722999 0.213591 2.04056 0.00811842 -0.517403 -2.7227 0.015 0 0 -0.346714 0.0353429 
137 1 -0.0860069 0.243037 2.03335 -0.00924354 -0.479856 -2.75228 0.015 0 0 -0.346714 0.0353429 
33 1 -0.129286 0.392605 2.03755 0 -0.5 -2.73521 0.025 0 0 -1.60516 0.163625 
119 1 -0.0370509 0.141189 2.05514 0 -0.5 -2.67145 0.015 0 0 -0.346714 0.0353429 
75 1 -0.0493142 0.191672 2.06359 0 -0.5 -2.64015 0.015 0 0 -0.346714 0.0353429 
89 1 -0.129145 0.220308 2.06671 0 -0.5 -2.62858 0.015 0 0 -0.346714 0.0353429 
43 1 -0.116198 0.303785 2.05103 0 -0.5 -2.68645 0.025 0 0 -1.60516 0.163625 
59 1 -0.0865612 0.348868 2.07356 0 -0.5 -2.60287 0.015 0 0 -0.346714 0.0353429 
78 1 -0.0422369 0.399955 2.05894 0 -0.5 -2.65742 0.015 0 0 -0.346714 0.0353429 
111 1 -0.0487783 0.4361 2.05132 0 -0.5 -2.68538 0.015 0 0 -0.346714 0.0353429 
116 1 -0.0779401 0.241842 2.09694 0.365699 -0.286962 -2.71355 0.015 -0.0459594 -0.0268974 -0.321395 0.0353429 
92 1 -0.131017 0.443327 2.08077 0 -0.5 -2.5756 0.015 0 0 -0.346714 0.0353429 
8 1 -0.104188 0.159463 2.1147 0 -0.5 -2.44287 0.025 0 0 -1.60516 0.163625 
26 1 -0.109117 0.22507 2.11547 0.148495 -0.341597 -2.54461 0.025 0.0459594 0.0268974 -1.63048 0.163625 
100 1 -0.0681017 0.227921 2.13298 0 -0.5 -2.36841 0.015 0 0 -0.346714 0.0353429 
98 1 -0.147127 0.292442 2.10694 0 -0.5 -2.47387 0.015 0 0 -0.346714 0.0353429 
140 1 -0.125739 0.269556 2.13082 0 -0.5 -2.37734 0.015 0 0 -0.346714 0.0353429 
3 1 -0.141317 0.357388 2.11825 0 -0.5 -2.42865 0.025 0 0 -1.60516 0.163625 
151 1 -0.0686397 0.374527 2.10668 0 -0.5 -2.47495 0.015 0 0 -0.346714 0.0353429 
72 1 -0.105673 0.394796 2.12431 0 -0.5 -2.40402 0.015 0 0 -0.346714 0.0353429 
40 1 -0.104474 0.446198 2.13131 0 -0.5 -2.37528 0.025 0 0 -1.60516 0.163625 
118 1 -0.0372647 0.429681 2.13525 0 -0.5 -2.359 0.015 0 0 -0.346714 0.0353429 
117 1 -0.0596227 0.171021 2.14186 0 -0.5 -2.33133 0.015 0 0 -0.346714 0.0353429 
51 1 -0.149422 0.192201 2.15033 -0.0265052 -0.519812 -2.27943 0.025 0 0 -1.60516 0.163625 
90 1 -0.146535 0.447667 2.16648 0 -0.5 -2.22529 0.015 0 0 -0.346714 0.0353429 
44 1 -0.125916 0.171597 2.19831 0 -0.5 -2.0802 0.025 0 0 -1.60516 0.163625 
60 1 -0.0770515 0.179928 2.17464 0 -0.5 -2.18899 0.015 0 0 -0.346714 0.0353429 
148 1 -0.110732 0.271047 2.18099 -0.142341 -0.405176 -2.3327 0.015 0 0 -0.346714 0.0353429 
11 1 -0.104535 0.330163 2.17537 0 -0.5 -2.18575 0.025 0 0 -1.60516 0.163625 
50 1 -0.130982 0.404355 2.17524 0 -0.5 -2.18634 0.025 0 0 -1.60516 0.163625 
74 1 -0.0790012 0.391893 2.18846 0 -0.5 -2.12621 0.015 0 0 -0.346714 0.0353429 
76 1 -0.0202065 0.42007 2.1944 0 -0.5 -2.09864 0.015 0 0 -0.346714 0.0353429 
73 1 -0.0639552 0.194042 2.22992 -0 0 -2 0.015 0 0 0 0.0353429 
36 1 -0.103411 0.218312 2.20619 0 -0.5 -2.04272 0.025 0 0 -1.60516 0.163625 
54 1 -0.127903 0.26259 2.20968 0 -0.5 -2.02595 0.015 0 0 -0.346714 0.0353429 
105 1 -0.0924839 0.263511 2.20552 -0.258019 -0.265672 -2.21211 0.015 -2.91481 2.5366 -2.23663 0.0353429 
114 1 -0.0718896 0.247337 2.21904 -0 0 -2 0.015 0 0 0 0.0353429 
29 1 -0.0788351 0.434182 2.204 0 -0.5 -2.05322 0.025 0 0 -1.60516 0.163625 
113 1 -0.118506 0.466048 2.2276 -0 0 -2 0.015 0 0 0 0.0353429 
146 1 -0.109965 0.179156 2.23805 -0 0 -2 0.015 0 0 0 0.0353429 
99 1 -0.146283 0.240102 2.25268 -0 0 -2 0.015 0 0 0 0.0353429 
57 1 -0.120673 0.292821 2.24796 -0 0 -2 0.015 0 0 0 0.0353429 
2 1 -0.110349 0.340826 2.23199 -0 0 -2 0.025 0 0 0 0.163625 
88 1 -0.0666498 0.404684 2.24396 -0 0 -2 0.015 0 0 0 0.0353429 
12 1 -0.0363281 0.448716 2.2375 -0 0 -2 0.025 0 0 0 0.163625 
67 1 -0.0183057 0.176509 2.27852 -0 0 -2 0.015 0 0 0 0.0353429 
24 1 -0.138394 0.202357 2.28339 -0 0 -2 0.025 0 0 0 0.163625 
66 1 -0.0281121 0.223413 2.26865 -0 0 -2 0.015 0 0 0 0.0353429 
83 1 -0.108229 0.266466 2.26573 -0 0 -2 0.015 0 0 0 0.0353429 
19 1 -0.0715757 0.246217 2.26714 -0 0 -2 0.025 0 0 0 0.163625 
133 1 -0.127566 0.317989 2.28683 -0 0 -2 0.015 0 0 0 0.0353429 
10 1 -0.0985872 0.348255 2.28269 -0 0 -2 0.025 0 0 0 0.163625 
34 1 -0.138562 0.406366 2.26359 -0 0 -2 0.025 0 0 0 0.163625 
95 1 -0.10482 0.405012 2.2882 -0 0 -2 0.015 0 0 0 0.0353429 
81 1 -0.051385 0.406229 2.27008 -0 0 -2 0.015 0 0 0 0.0353429 
71 1 -0.145263 0.448003 2.2718 -0 0 -2 0.015 0 0 0 0.0353429 
39 1 -0.0696793 0.4547 2.28826 -0 0 -2 0.025 0 0 0 0.163625 
28 1 -0.0685748 0.19761 2.31285 -0 0 -2 0.025 0 0 0 0.163625 
70 1 -0.107191 0.223969 2.30282 -0 0 -2 0.015 0 0 0 0.0353429 
97 1 -0.0338223 0.225584 2.30925 -0 0 -2 0.015 0 0 0 0.0353429 
103 1 -0.135939 0.242982 2.29797 -0 0 -2 0.015 0 0 0 0.0353429 
115 1 -0.076478 0.260831 2.30942 -0 0 -2 0.015 0 0 0 0.0353429 
126 1 -0.11117 0.322121 2.31319 -0 0 -2 0.015 0 0 0 0.0353429 
85 1 -0.13789 0.382175 2.31037 -0 0 -2 0.015 0 0 0 0.0353429 
134 1 -0.137197 0.420922 2.31678 -0 0 -2 0.015 0 0 0 0.0353429 
77 1 -0.0297287 0.448599 2.3196 -0 0 -2 0.015 0 0 0 0.0353429 
120 1 -0.148569 0.468911 2.32042 -0 0 -2 0.015 0 0 0 0.0353429 
143 1 -0.11631 0.460077 2.30143 -0 0 -2 0.015 0 0 0 0.0353429 
96 1 -0.131998 0.220986 2.32739 -0 0 -2 0.015 0 0 0 0.0353429 
38 1 -0.121616 0.260048 2.33557 -0 0 -2 0.025 0 0 0 0.163625 
130 1 -0.0642546 0.250466 2.35091 -0 0 -2 0.015 0 0 0 0.0353429 
23 1 -0.134189 0.392634 2.35055 -0 0 -2 0.025 0 0 0 0.163625 
110 1 -0.0868918 0.176082 2.37635 -0 0 -2 0.015 0 0 0 0.0353429 
31 1 -0.140814 0.189187 2.36577 -0 0 -2 0.025 0 0 0 0.163625 
150 1 -0.100106 0.224977 2.35993 -0 0 -2 0.015 0 0 0 0.0353429 
18 1 -0.106015 0.455331 2.36042 -0 0 -2 0.025 0 0 0 0.163625 
4 1 -0.0330873 0.468582 2.36012 -0 0 -2 0.025 0 0 0 0.163625 
108 1 -0.089121 0.201884 2.40278 -0 0 -2 0.015 0 0 0 0.0353429 
93 1 -0.0244706 0.186478 2.38173 -0 0 -2 0.015 0 0 0 0.0353429 
69 1 -0.020474 0.219918 2.41167 -0 0 -2 0.015 0 0 0 0.0353429 
17 1 -0.134634 0.299667 2.38445 -0 0 -2 0.025 0 0 0 0.163625 
136 1 -0.0832352 0.392978 2.38313 -0 0 -2 0.015 0 0 0 0.0353429 
30 1 -0.0481876 0.420042 2.38627 -0 0 -2 0.025 0 0 0 0.163625 
106 1 -0.102883 0.446824 2.41043 -0 0 -2 0.015 0 0 0 0.0353429 
109 1 -0.0676248 0.46737 2.38584 -0 0 -2 0.015 0 0 0 0.0353429 
102 1 -0.11709 0.195969 2.42674 -0 0 -2 0.015 0 0 0 0.0353429 
14 1 -0.0571303 0.18696 2.43107 -0 0 -2 0.025 0 0 0 0.163625 
141 1 -0.136875 0.266764 2.43701 -0 0 -2 0.015 0 0 0 0.0353429 
139 1 -0.104092 0.253657 2.42667 -0 0 -2 0.015 0 0 0 0.0353429 
144 1 -0.0691235 0.256654 2.4263 -0 0 -2 0.015 0 0 0 0.0353429 
22 1 -0.102489 0.321901 2.42463 -0 0 -2 0.025 0 0 0 0.163625 
35 1 -0.146938 0.392962 2.41432 -0 0 -2 0.025 0 0 0 0.163625 
55 1 -0.0959971 0.425903 2.43297 -0 0 -2 0.015 0 0 0 0.0353429 
107 1 -0.141609 0.176798 2.45962 -0 0 -2 0.015 0 0 0 0.0353429 
112 1 -0.073338 0.257454 2.47031 -0 0 -2 0.015 0 0 0 0.0353429 
94 1 -0.127866 0.29863 2.46584 -0 0 -2 0.015 0 0 0 0.0353429 
84 1 -0.116406 0.338316 2.4689 -0 0 -2 0.015 0 0 0 0.0353429 
87 1 -0.113676 0.385123 2.44887 -0 0 -2 0.015 0 0 0 0.0353429 
147 1 -0.100309 0.450661 2.46609 -0 0 -2 0.015 0 0 0 0.0353429 
1 1 -0.142366 0.459394 2.44637 -0 0 -2 0.025 0 0 0 0.163625 
21 1 -0.0470047 0.46853 2.44288 -0 0 -2 0.025 0 0 0 0.163625 
32 1 -0.149633 0.185622 2.49866 -0 0 -2 0.025 0 0 0 0.163625 
142 1 -0.0724928 0.196693 2.47923 -0 0 -2 0.015 0 0 0 0.0353429 
6 1 -0.109435 0.215083 2.49084 -0 0 -2 0.025 0 0 0 0.163625 
135 1 -0.140472 0.259953 2.49876 -0 0 -2 0.015 0 0 0 0.0353429 
149 1 -0.107316 0.253342 2.4789 -0 0 -2 0.015 0 0 0 0.0353429 
15 1 -0.0916636 0.308509 2.49268 -0 0 -2 0.025 0 0 0 0.163625 
80 1 -0.102893 0.380978 2.48668 -0 0 -2 0.015 0 0 0 0.0353429 
47 1 -0.140465 0.419385 2.47927 -0 0 -2 0.025 0 0 0 0.163625 
145 1 -0.0934491 0.411838 2.48012 -0 0 -2 0.015 0 0 0 0.0353429 
62 1 -0.0849655 0.467496 2.49866 -0 0 -2 0.015 0 0 0 0.0353429 
138 1 -0.0317395 0.192376 2.50676 -0 0 -2 0.015 0 0 0 0.0353429 
129 1 -0.0553418 0.210019 2.53172 -0 0 -2 0.015 0 0 0 0.0353429 
128 1 -0.145291 0.342562 2.50747 -0 0 -2 0.015 0 0 0 0.0353429 
121 1 -0.0679495 0.444838 2.51597 -0 0 -2 0.015 0 0 0 0.0353429 
61 1 -0.0231802 0.176945 2.54297 -0 0 -2 0.015 0 0 0 0.0353429 
52 1 -0.100497 0.1916 2.54656 -0 0 -2 0.015 0 0 0 0.0353429 
79 1 -0.0179342 0.210984 2.543 -0 0 -2 0.015 0 0 0 0.0353429 
5 1 -0.137704 0.218352 2.55125 -0 0 -2 0.025 0 0 0 0.163625 
7 1 -0.0712578 0.257024 2.55271 -0 0 -2 0.025 0 0 0 0.163625 
13 1 -0.146779 0.291061 2.53806 -0 0 -2 0.025 0 0 0 0.163625 
101 1 -0.102489 0.301504 2.53629 -0 0 -2 0.015 0 0 0 0.0353429 
20 1 -0.124339 0.346193 2.5498 -0 0 -2 0.025 0 0 0 0.163625 
91 1 -0.124131 0.396082 2.54321 -0 0 -2 0.015 0 0 0 0.0353429 
37 1 -0.0716655 0.404405 2.53605 -0 0 -2 0.025 0 0 0 0.163625 
46 1 -0.032303 0.465744 2.53831 -0 0 -2 0.025 0 0 0 0.163625 
65 1 -0.147981 0.187337 2.58204 -0 0 -2 0.015 0 0 0 0.0353429 
58 1 -0.0969698 0.285666 2.57591 -0 0 -2 0.015 0 0 0 0.0353429 
86 1 -0.142939 0.382764 2.56819 -0 0 -2 0.015 0 0 0 0.0353429 
124 1 -0.136447 0.411167 2.57585 -0 0 -2 0.015 0 0 0 0.0353429 
9 1 -0.0320364 0.416484 2.56971 -0 0 -2 0.025 0 0 0 0.163625 
41 1 -0.107908 0.465288 2.58089 -0 0 -2 0.025 0 0 0 0.163625 
49 1 -0.0613084 0.18937 2.61636 -0 0 -2 0.025 0 0 0 0.163625 
132 1 -0.0234712 0.214078 2.60738 -0 0 -2 0.015 0 0 0 0.0353429 
48 1 -0.144727 0.271852 2.60701 -0 0 -2 0.025 0 0 0 0.163625 
53 1 -0.106432 0.3161 2.60798 -0 0 -2 0.015 0 0 0 0.0353429 
104 1 -0.138444 0.347252 2.59886 -0 0 -2 0.015 0 0 0 0.0353429 
16 1 -0.129915 0.412384 2.6178 -0 0 -2 0.025 0 0 0 0.163625 
82 1 -0.0851821 0.402207 2.62069 -0 0 -2 0.015 0 0 0 0.0353429 
27 1 -0.0637137 0.439115 2.61809 -0 0 -2 0.025 0 0 0 0.163625 
131 1 -0.025873 0.449155 2.59454 -0 0 -2 0.015 0 0 0 0.0353429 
25 1 -0.104447 0.217985 2.63821 -0 0 -2 0.025 0 0 0 0.163625 
127 1 -0.0304133 0.231126 2.63299 -0 0 -2 0.015 0 0 0 0.0353429 
42 1 -0.132916 0.309326 2.64488 -0 0 -2 0.025 0 0 0 0.163625 
123 1 -0.11925 0.365597 2.64658 -0 0 -2 0.015 0 0 0 0.0353429 
64 1 -0.145219 0.427667 2.65304 -0 0 -2 0.015 0 0 0 0.0353429 
63 1 -0.147823 0.467223 2.62496 -0 0 -2 0.015 0 0 0 0.0353429 
56 1 -0.11556 0.462639 2.63292 -0 0 -2 0.015 0 0 0 0.0353429 
125 1 -0.0960051 0.419402 2.65392 -0 0 -2 0.015 0 0 0 0.0353429 
289 1 0.0934381 0.282239 2.0036 0.0203384 -0.134604 -3.15343 0.015 0 0 -0.346714 0.0353429 
203 1 0.0667127 0.139233 2.03931 0 -0.5 -2.72893 0.015 0 0 -0.346714 0.0353429 
284 1 0.0765149 0.170696 2.03049 0 -0.5 -2.76042 0.015 0 0 -0.346714 0.0353429 
213 1 0.0350777 0.37857 2.03938 0 -0.5 -2.72864 0.015 0 0 -0.346714 0.0353429 
272 1 0.0168276 0.413548 2.03688 0 -0.5 -2.73766 0.015 0 0 -0.346714 0.0353429 
220 1 0.0359903 0.170469 2.07157 -0.0669262 -0.554313 -2.59491 0.015 0 0 -0.346714 0.0353429 
263 1 0.025742 0.200494 2.05901 0 -0.5 -2.65712 0.015 0 0 -0.346714 0.0353429 
206 1 0.0780579 0.203518 2.05355 0.0985113 -0.67138 -2.84374 0.015 0 0 -0.346714 0.0353429 
237 1 0.117019 0.200451 2.04891 0 -0.5 -2.6942 0.015 0 0 -0.346714 0.0353429 
259 1 0.149131 0.179826 2.05278 0 -0.5 -2.68008 0.015 0 0 -0.346714 0.0353429 
199 1 0.0906403 0.243937 2.06139 -0.00278668 -0.321029 -2.82509 0.025 0 0 -1.60516 0.163625 
177 1 0.127823 0.28181 2.074 0.122099 -0.354776 -2.59449 0.025 0 0 -1.60516 0.163625 
214 1 0.144386 0.325733 2.04436 0 -0.5 -2.71069 0.015 0 0 -0.346714 0.0353429 
171 1 0.0955264 0.341107 2.05243 0 -0.5 -2.68135 0.025 0 0 -1.60516 0.163625 
226 1 0.110692 0.387304 2.04983 0 -0.5 -2.69087 0.015 0 0 -0.346714 0.0353429 
241 1 0.0849537 0.409018 2.04678 0 -0.5 -2.70195 0.015 0 0 -0.346714 0.0353429 
290 1 0.140367 0.325539 2.08615 0 -0.5 -2.555 0.015 0 0 -0.346714 0.0353429 
249 1 0.0491797 0.379421 2.1028 0 -0.5 -2.49025 0.015 0 0 -0.346714 0.0353429 
166 1 0.0609489 0.443253 2.09439 0 -0.5 -2.52322 0.025 0 0 -1.60516 0.163625 
184 1 0.11251 0.441841 2.09132 0 -0.5 -2.53509 0.025 0 0 -1.60516 0.163625 
180 1 0.0442532 0.198424 2.13593 0 -0.5 -2.35615 0.025 0 0 -1.60516 0.163625 
216 1 0.0790576 0.20592 2.11489 -0.0532053 -0.631329 -2.325 0.015 0 0 -0.346714 0.0353429 
222 1 0.123753 0.181661 2.11904 0 -0.5 -2.42541 0.015 0 0 -0.346714 0.0353429 
170 1 0.137232 0.335249 2.13424 0.161731 -0.381986 -2.39699 0.025 0 0 -1.60516 0.163625 
270 1 0.0946744 0.371669 2.10932 0 -0.5 -2.46445 0.015 0 0 -0.346714 0.0353429 
231 1 0.0350342 0.40162 2.13615 0 -0.5 -2.35527 0.015 0 0 -0.346714 0.0353429 
294 1 0.128315 0.404152 2.117 0 -0.5 -2.43365 0.015 0 0 -0.346714 0.0353429 
209 1 0.0969746 0.177248 2.16008 0 -0.5 -2.25334 0.015 0 0 -0.346714 0.0353429 
253 1 0.123075 0.289069 2.13884 0 -0.5 -2.34399 0.015 0 0 -0.346714 0.0353429 
282 1 0.0919578 0.304662 2.14678 -0.2609 -0.673185 -2.25925 0.015 0 0 -0.346714 0.0353429 
169 1 0.0892107 0.410668 2.14669 0 -0.5 -2.31093 0.025 0 0 -1.60516 0.163625 
235 1 0.134937 0.180385 2.19911 0 -0.5 -2.07647 0.015 0 0 -0.346714 0.0353429 
168 1 0.0261487 0.214104 2.19381 0 -0.5 -2.10139 0.025 0 0 -1.60516 0.163625 
269 1 0.141487 0.209504 2.19254 0 -0.5 -2.10727 0.015 0 0 -0.346714 0.0353429 
217 1 0.133752 0.259691 2.19845 0 -0.5 -2.07961 0.015 0 0 -0.346714 0.0353429 
296 1 0.146983 0.293001 2.17649 0 -0.5 -2.18075 0.015 0 0 -0.346714 0.0353429 
278 1 0.113612 0.311965 2.17566 0 -0.5 -2.18448 0.015 0 0 -0.346714 0.0353429 
182 1 0.114565 0.369779 2.19679 0 -0.5 -2.08746 0.025 0 0 -1.60516 0.163625 
162 1 0.0478022 0.414457 2.19029 0 -0.5 -2.11777 0.025 0 0 -1.60516 0.163625 
257 1 0.139837 0.424641 2.17588 0 -0.5 -2.1835 0.015 0 0 -0.346714 0.0353429 
176 1 0.0399362 0.466472 2.19848 0 -0.5 -2.07941 0.025 0 0 -1.60516 0.163625 
286 1 0.147755 0.45887 2.19799 0 -0.5 -2.08177 0.015 0 0 -0.346714 0.0353429 
153 1 0.0895866 0.17476 2.21286 0 -0.5 -2.01045 0.025 0 0 -1.60516 0.163625 
211 1 0.0694768 0.231402 2.22129 -0 0 -2 0.015 0 0 0 0.0353429 
185 1 0.0936576 0.258666 2.20212 0 -0.5 -2.06224 0.025 0 0 -1.60516 0.163625 
251 1 0.126174 0.326714 2.21839 -0 0 -2 0.015 0 0 0 0.0353429 
291 1 0.140432 0.400348 2.22771 -0 0 -2 0.015 0 0 0 0.0353429 
159 1 0.087245 0.458888 2.22829 -0 0 -2 0.025 0 0 0 0.163625 
175 1 0.0941494 0.204234 2.25431 -0 0 -2 0.025 0 0 0 0.163625 
204 1 0.134881 0.215418 2.23832 -0 0 -2 0.015 0 0 0 0.0353429 
161 1 0.135356 0.273135 2.23787 -0 0 -2 0.025 0 0 0 0.163625 
230 1 0.118982 0.311717 2.24563 -0 0 -2 0.015 0 0 0 0.0353429 
228 1 0.0279693 0.421998 2.2414 -0 0 -2 0.015 0 0 0 0.0353429 
300 1 0.149285 0.45152 2.2339 -0 0 -2 0.015 0 0 0 0.0353429 
202 1 0.126943 0.194204 2.28666 -0 0 -2 0.015 0 0 0 0.0353429 
299 1 0.0153001 0.223001 2.27317 -0 0 -2 0.015 0 0 0 0.0353429 
293 1 0.0548164 0.239515 2.26953 -0 0 -2 0.015 0 0 0 0.0353429 
200 1 0.112803 0.253719 2.28074 -0 0 -2 0.025 0 0 0 0.163625 
192 1 0.134392 0.364514 2.26515 -0 0 -2 0.025 0 0 0 0.163625 
255 1 0.0340792 0.41171 2.28362 -0 0 -2 0.015 0 0 0 0.0353429 
285 1 0.0870748 0.401534 2.26591 -0 0 -2 0.015 0 0 0 0.0353429 
252 1 0.131256 0.420269 2.28363 -0 0 -2 0.015 0 0 0 0.0353429 
275 1 0.0211058 0.446622 2.27236 -0 0 -2 0.015 0 0 0 0.0353429 
256 1 0.0868225 0.433952 2.26342 -0 0 -2 0.015 0 0 0 0.0353429 
250 1 0.138716 0.448388 2.26222 -0 0 -2 0.015 0 0 0 0.0353429 
246 1 0.0494565 0.4682 2.26625 -0 0 -2 0.015 0 0 0 0.0353429 
240 1 0.0956629 0.4648 2.26733 -0 0 -2 0.015 0 0 0 0.0353429 
287 1 0.130384 0.17682 2.31713 -0 0 -2 0.015 0 0 0 0.0353429 
189 1 0.0509787 0.189477 2.30316 -0 0 -2 0.025 0 0 0 0.163625 
245 1 0.0868358 0.21853 2.29174 -0 0 -2 0.015 0 0 0 0.0353429 
247 1 0.0532922 0.24431 2.30002 -0 0 -2 0.015 0 0 0 0.0353429 
154 1 0.116388 0.333622 2.309 -0 0 -2 0.025 0 0 0 0.163625 
190 1 0.11779 0.446077 2.31362 -0 0 -2 0.025 0 0 0 0.163625 
210 1 0.0872868 0.178716 2.33768 -0 0 -2 0.015 0 0 0 0.0353429 
288 1 0.0326968 0.220656 2.32217 -0 0 -2 0.015 0 0 0 0.0353429 
181 1 0.070397 0.216714 2.34154 -0 0 -2 0.025 0 0 0 0.163625 
165 1 0.148355 0.269976 2.33587 -0 0 -2 0.025 0 0 0 0.163625 
295 1 0.103955 0.389653 2.3237 -0 0 -2 0.015 0 0 0 0.0353429 
156 1 0.0411221 0.437707 2.32494 -0 0 -2 0.025 0 0 0 0.163625 
233 1 0.0406697 0.190327 2.36287 -0 0 -2 0.015 0 0 0 0.0353429 
260 1 0.0198171 0.221855 2.35607 -0 0 -2 0.015 0 0 0 0.0353429 
152 1 0.089118 0.280769 2.35252 -0 0 -2 0.025 0 0 0 0.163625 
279 1 0.11959 0.339787 2.35716 -0 0 -2 0.015 0 0 0 0.0353429 
262 1 0.0888361 0.372678 2.36032 -0 0 -2 0.015 0 0 0 0.0353429 
207 1 0.128901 0.387724 2.36966 -0 0 -2 0.015 0 0 0 0.0353429 
234 1 0.0945525 0.423196 2.35771 -0 0 -2 0.015 0 0 0 0.0353429 
194 1 0.131621 0.447751 2.36816 -0 0 -2 0.025 0 0 0 0.163625 
223 1 0.0343911 0.467936 2.37755 -0 0 -2 0.015 0 0 0 0.0353429 
208 1 0.0680799 0.458746 2.36103 -0 0 -2 0.015 0 0 0 0.0353429 
178 1 0.0370442 0.176531 2.40948 -0 0 -2 0.025 0 0 0 0.163625 
212 1 0.0737637 0.196713 2.3921 -0 0 -2 0.015 0 0 0 0.0353429 
236 1 0.111584 0.210187 2.39211 -0 0 -2 0.015 0 0 0 0.0353429 
224 1 0.132465 0.234727 2.40954 -0 0 -2 0.015 0 0 0 0.0353429 
242 1 0.131055 0.286068 2.40237 -0 0 -2 0.015 0 0 0 0.0353429 
191 1 0.0609008 0.410844 2.39404 -0 0 -2 0.025 0 0 0 0.163625 
258 1 0.135516 0.183364 2.42948 -0 0 -2 0.015 0 0 0 0.0353429 
187 1 0.0681893 0.23526 2.43752 -0 0 -2 0.025 0 0 0 0.163625 
221 1 0.0987988 0.270466 2.41423 -0 0 -2 0.015 0 0 0 0.0353429 
179 1 0.136485 0.334335 2.42533 -0 0 -2 0.025 0 0 0 0.163625 
248 1 0.0851139 0.371469 2.43256 -0 0 -2 0.015 0 0 0 0.0353429 
157 1 0.115469 0.419287 2.4395 -0 0 -2 0.025 0 0 0 0.163625 
264 1 0.0357265 0.464363 2.43367 -0 0 -2 0.015 0 0 0 0.0353429 
277 1 0.0674794 0.455945 2.44045 -0 0 -2 0.015 0 0 0 0.0353429 
205 1 0.0941484 0.176621 2.45585 -0 0 -2 0.015 0 0 0 0.0353429 
276 1 0.0937292 0.21136 2.46947 -0 0 -2 0.015 0 0 0 0.0353429 
227 1 0.137271 0.1866 2.46132 -0 0 -2 0.015 0 0 0 0.0353429 
232 1 0.13999 0.251489 2.45133 -0 0 -2 0.015 0 0 0 0.0353429 
172 1 0.128434 0.362446 2.47047 -0 0 -2 0.025 0 0 0 0.163625 
174 1 0.030822 0.423363 2.45181 -0 0 -2 0.025 0 0 0 0.163625 
201 1 0.0267726 0.186335 2.47543 -0 0 -2 0.025 0 0 0 0.163625 
265 1 0.115746 0.204637 2.49281 -0 0 -2 0.015 0 0 0 0.0353429 
225 1 0.0772421 0.22912 2.49096 -0 0 -2 0.015 0 0 0 0.0353429 
158 1 0.0866624 0.276126 2.47474 -0 0 -2 0.025 0 0 0 0.163625 
271 1 0.0988759 0.311205 2.49776 -0 0 -2 0.015 0 0 0 0.0353429 
254 1 0.137401 0.322401 2.48036 -0 0 -2 0.015 0 0 0 0.0353429 
274 1 0.108637 0.339608 2.4971 -0 0 -2 0.015 0 0 0 0.0353429 
183 1 0.0737852 0.400871 2.50143 -0 0 -2 0.025 0 0 0 0.163625 
283 1 0.102888 0.442022 2.48745 -0 0 -2 0.015 0 0 0 0.0353429 
173 1 0.0548933 0.463589 2.49084 -0 0 -2 0.025 0 0 0 0.163625 
229 1 0.102013 0.176876 2.509 -0 0 -2 0.015 0 0 0 0.0353429 
196 1 0.0520917 0.20732 2.51878 -0 0 -2 0.025 0 0 0 0.163625 
163 1 0.107222 0.236676 2.52443 -0 0 -2 0.025 0 0 0 0.163625 
155 1 0.141768 0.302505 2.52515 -0 0 -2 0.025 0 0 0 0.163625 
281 1 0.0312292 0.432852 2.51463 -0 0 -2 0.015 0 0 0 0.0353429 
188 1 0.140755 0.442261 2.52041 -0 0 -2 0.025 0 0 0 0.163625 
218 1 0.0164873 0.217058 2.56037 -0 0 -2 0.015 0 0 0 0.0353429 
298 1 0.114914 0.351461 2.55245 -0 0 -2 0.015 0 0 0 0.0353429 
268 1 0.140569 0.388665 2.53404 -0 0 -2 0.015 0 0 0 0.0353429 
197 1 0.0581936 0.42558 2.55216 -0 0 -2 0.025 0 0 0 0.163625 
280 1 0.0367193 0.456786 2.53577 -0 0 -2 0.015 0 0 0 0.0353429 
273 1 0.0779061 0.461373 2.55384 -0 0 -2 0.015 0 0 0 0.0353429 
267 1 0.101401 0.464343 2.53338 -0 0 -2 0.015 0 0 0 0.0353429 
160 1 0.118533 0.219824 2.59038 -0 0 -2 0.025 0 0 0 0.163625 
238 1 0.105443 0.363301 2.58041 -0 0 -2 0.015 0 0 0 0.0353429 
195 1 0.147227 0.360394 2.58652 -0 0 -2 0.025 0 0 0 0.163625 
167 1 0.118751 0.462916 2.58472 -0 0 -2 0.025 0 0 0 0.163625 
164 1 0.0527853 0.200711 2.59668 -0 0 -2 0.025 0 0 0 0.163625 
261 1 0.0852607 0.230216 2.6149 -0 0 -2 0.015 0 0 0 0.0353429 
215 1 0.0767991 0.264474 2.59977 -0 0 -2 0.015 0 0 0 0.0353429 
297 1 0.141884 0.27502 2.59754 -0 0 -2 0.015 0 0 0 0.0353429 
243 1 0.113126 0.365244 2.6175 -0 0 -2 0.015 0 0 0 0.0353429 
292 1 0.0287531 0.422464 2.59968 -0 0 -2 0.015 0 0 0 0.0353429 
193 1 0.102412 0.413293 2.61252 -0 0 -2 0.025 0 0 0 0.163625 
198 1 0.0617553 0.466461 2.61262 -0 0 -2 0.025 0 0 0 0.163625 
219 1 0.0278687 0.201322 2.64255 -0 0 -2 0.015 0 0 0 0.0353429 
239 1 0.126558 0.237343 2.63931 -0 0 -2 0.015 0 0 0 0.0353429 
186 1 0.10183 0.291927 2.63208 -0 0 -2 0.025 0 0 0 0.163625 
266 1 0.0917737 0.36017 2.64911 -0 0 -2 0.015 0 0 0 0.0353429 
244 1 0.0497502 0.427977 2.63571 -0 0 -2 0.015 0 0 0 0.0353429 
