ITEM: TIMESTEP
4000
ITEM: NUMBER OF ATOMS
300
ITEM: BOX BOUNDS mm mm mm
-1 1
-1 1
-0.05 2.85
ITEM: ATOMS id type x y z vx vy vz radius fx fy fz mass 
45 1 -0.0943793 0.176238 2.16005 0 -0.5 -2.25344 0.025 0 0 -1.60516 0.163625 
68 1 -0.0997213 0.225271 2.14825 0 -0.5 -2.30426 0.015 0 0 -0.346714 0.0353429 
122 1 -0.0726896 0.238426 2.15995 0.00811842 -0.517403 -2.25182 0.015 0 0 -0.346714 0.0353429 
137 1 -0.0855632 0.26607 2.15416 -0.00924354 -0.479856 -2.2814 0.015 0 0 -0.346714 0.0353429 
33 1 -0.129286 0.416605 2.15754 0 -0.5 -2.26433 0.025 0 0 -1.60516 0.163625 
119 1 -0.0370509 0.165189 2.17207 0 -0.5 -2.20057 0.015 0 0 -0.346714 0.0353429 
75 1 -0.0493142 0.215672 2.17902 0 -0.5 -2.16927 0.015 0 0 -0.346714 0.0353429 
89 1 -0.129145 0.244308 2.18158 0 -0.5 -2.1577 0.015 0 0 -0.346714 0.0353429 
43 1 -0.116198 0.327785 2.16868 0 -0.5 -2.21557 0.025 0 0 -1.60516 0.163625 
59 1 -0.0865612 0.372868 2.1872 0 -0.5 -2.13199 0.015 0 0 -0.346714 0.0353429 
78 1 -0.0422369 0.423955 2.17519 0 -0.5 -2.18654 0.015 0 0 -0.346714 0.0353429 
92 1 -0.131017 0.467327 2.1931 0 -0.5 -2.10472 0.015 0 0 -0.346714 0.0353429 
111 1 -0.0487783 0.4601 2.16892 0 -0.5 -2.2145 0.015 0 0 -0.346714 0.0353429 
8 1 -0.104188 0.182038 2.2207 -0 0 -2 0.025 0 0 0 0.163625 
26 1 -0.116264 0.239868 2.22578 -0 0 -2 0.025 0 0 0 0.163625 
116 1 -0.0789839 0.265228 2.20674 0 -0.5 -2.04007 0.015 0 0 -0.346714 0.0353429 
98 1 -0.147127 0.316442 2.21439 0 -0.5 -2.00299 0.015 0 0 -0.346714 0.0353429 
3 1 -0.141317 0.379238 2.22362 -0 0 -2 0.025 0 0 0 0.163625 
151 1 -0.0686397 0.398527 2.21418 0 -0.5 -2.00407 0.015 0 0 -0.346714 0.0353429 
51 1 -0.148629 0.207973 2.2503 -0 0 -2 0.025 0 0 0 0.163625 
117 1 -0.0596227 0.187911 2.24345 -0 0 -2 0.015 0 0 0 0.0353429 
100 1 -0.0681017 0.246701 2.2359 -0 0 -2 0.015 0 0 0 0.0353429 
140 1 -0.125739 0.288791 2.23407 -0 0 -2 0.015 0 0 0 0.0353429 
72 1 -0.105673 0.415391 2.22863 -0 0 -2 0.015 0 0 0 0.0353429 
118 1 -0.0372647 0.447981 2.23782 -0 0 -2 0.015 0 0 0 0.0353429 
40 1 -0.104474 0.465328 2.23449 -0 0 -2 0.025 0 0 0 0.163625 
60 1 -0.0770515 0.189563 2.27246 -0 0 -2 0.015 0 0 0 0.0353429 
148 1 -0.109236 0.277779 2.28006 -0 0 -2 0.015 0 0 0 0.0353429 
11 1 -0.104535 0.339633 2.27313 -0 0 -2 0.025 0 0 0 0.163625 
50 1 -0.130982 0.413855 2.27301 -0 0 -2 0.025 0 0 0 0.163625 
74 1 -0.0790012 0.398328 2.28528 -0 0 -2 0.015 0 0 0 0.0353429 
90 1 -0.146535 0.459152 2.26507 -0 0 -2 0.015 0 0 0 0.0353429 
44 1 -0.125916 0.175687 2.29464 -0 0 -2 0.025 0 0 0 0.163625 
36 1 -0.103411 0.220492 2.30228 -0 0 -2 0.025 0 0 0 0.163625 
54 1 -0.127903 0.263915 2.30572 -0 0 -2 0.015 0 0 0 0.0353429 
105 1 -0.0921083 0.265449 2.30186 -0 0 -2 0.015 0 0 0 0.0353429 
114 1 -0.0718896 0.247337 2.31504 -0 0 -2 0.015 0 0 0 0.0353429 
29 1 -0.0788351 0.436897 2.30014 -0 0 -2 0.025 0 0 0 0.163625 
76 1 -0.0202065 0.4251 2.29089 -0 0 -2 0.015 0 0 0 0.0353429 
146 1 -0.109965 0.179156 2.33405 -0 0 -2 0.015 0 0 0 0.0353429 
73 1 -0.0639552 0.194042 2.32592 -0 0 -2 0.015 0 0 0 0.0353429 
57 1 -0.120673 0.292821 2.34396 -0 0 -2 0.015 0 0 0 0.0353429 
2 1 -0.110349 0.340826 2.32799 -0 0 -2 0.025 0 0 0 0.163625 
88 1 -0.0666498 0.404684 2.33996 -0 0 -2 0.015 0 0 0 0.0353429 
12 1 -0.0363281 0.448716 2.3335 -0 0 -2 0.025 0 0 0 0.163625 
113 1 -0.118506 0.466048 2.3236 -0 0 -2 0.015 0 0 0 0.0353429 
67 1 -0.0183057 0.176509 2.37452 -0 0 -2 0.015 0 0 0 0.0353429 
99 1 -0.146283 0.240102 2.34868 -0 0 -2 0.015 0 0 0 0.0353429 
66 1 -0.0281121 0.223413 2.36465 -0 0 -2 0.015 0 0 0 0.0353429 
83 1 -0.108229 0.266466 2.36173 -0 0 -2 0.015 0 0 0 0.0353429 
19 1 -0.0715757 0.246217 2.36314 -0 0 -2 0.025 0 0 0 0.163625 
34 1 -0.138562 0.406366 2.35959 -0 0 -2 0.025 0 0 0 0.163625 
81 1 -0.051385 0.406229 2.36608 -0 0 -2 0.015 0 0 0 0.0353429 
71 1 -0.145263 0.448003 2.3678 -0 0 -2 0.015 0 0 0 0.0353429 
24 1 -0.138394 0.202357 2.37939 -0 0 -2 0.025 0 0 0 0.163625 
70 1 -0.107191 0.223969 2.39882 -0 0 -2 0.015 0 0 0 0.0353429 
97 1 -0.0338223 0.225584 2.40525 -0 0 -2 0.015 0 0 0 0.0353429 
103 1 -0.135939 0.242982 2.39397 -0 0 -2 0.015 0 0 0 0.0353429 
115 1 -0.076478 0.260831 2.40542 -0 0 -2 0.015 0 0 0 0.0353429 
133 1 -0.127566 0.317989 2.38283 -0 0 -2 0.015 0 0 0 0.0353429 
10 1 -0.0985872 0.348255 2.37869 -0 0 -2 0.025 0 0 0 0.163625 
85 1 -0.13789 0.382175 2.40637 -0 0 -2 0.015 0 0 0 0.0353429 
95 1 -0.10482 0.405012 2.3842 -0 0 -2 0.015 0 0 0 0.0353429 
143 1 -0.11631 0.460077 2.39743 -0 0 -2 0.015 0 0 0 0.0353429 
39 1 -0.0696793 0.4547 2.38426 -0 0 -2 0.025 0 0 0 0.163625 
28 1 -0.0685748 0.19761 2.40885 -0 0 -2 0.025 0 0 0 0.163625 
96 1 -0.131998 0.220986 2.42339 -0 0 -2 0.015 0 0 0 0.0353429 
38 1 -0.121616 0.260048 2.43157 -0 0 -2 0.025 0 0 0 0.163625 
126 1 -0.11117 0.322121 2.40919 -0 0 -2 0.015 0 0 0 0.0353429 
134 1 -0.137197 0.420922 2.41278 -0 0 -2 0.015 0 0 0 0.0353429 
77 1 -0.0297287 0.448599 2.4156 -0 0 -2 0.015 0 0 0 0.0353429 
120 1 -0.148569 0.468911 2.41642 -0 0 -2 0.015 0 0 0 0.0353429 
31 1 -0.140814 0.189187 2.46177 -0 0 -2 0.025 0 0 0 0.163625 
150 1 -0.100106 0.224977 2.45593 -0 0 -2 0.015 0 0 0 0.0353429 
130 1 -0.0642546 0.250466 2.44691 -0 0 -2 0.015 0 0 0 0.0353429 
23 1 -0.134189 0.392634 2.44655 -0 0 -2 0.025 0 0 0 0.163625 
18 1 -0.106015 0.455331 2.45642 -0 0 -2 0.025 0 0 0 0.163625 
4 1 -0.0330873 0.468582 2.45612 -0 0 -2 0.025 0 0 0 0.163625 
110 1 -0.0868918 0.176082 2.47235 -0 0 -2 0.015 0 0 0 0.0353429 
108 1 -0.089121 0.201884 2.49878 -0 0 -2 0.015 0 0 0 0.0353429 
93 1 -0.0244706 0.186478 2.47773 -0 0 -2 0.015 0 0 0 0.0353429 
17 1 -0.134634 0.299667 2.48045 -0 0 -2 0.025 0 0 0 0.163625 
136 1 -0.0832352 0.392978 2.47913 -0 0 -2 0.015 0 0 0 0.0353429 
30 1 -0.0481876 0.420042 2.48227 -0 0 -2 0.025 0 0 0 0.163625 
109 1 -0.0676248 0.46737 2.48184 -0 0 -2 0.015 0 0 0 0.0353429 
102 1 -0.11709 0.195969 2.52274 -0 0 -2 0.015 0 0 0 0.0353429 
14 1 -0.0571303 0.18696 2.52707 -0 0 -2 0.025 0 0 0 0.163625 
69 1 -0.020474 0.219918 2.50767 -0 0 -2 0.015 0 0 0 0.0353429 
139 1 -0.104092 0.253657 2.52267 -0 0 -2 0.015 0 0 0 0.0353429 
144 1 -0.0691235 0.256654 2.5223 -0 0 -2 0.015 0 0 0 0.0353429 
22 1 -0.102489 0.321901 2.52063 -0 0 -2 0.025 0 0 0 0.163625 
35 1 -0.146938 0.392962 2.51032 -0 0 -2 0.025 0 0 0 0.163625 
106 1 -0.102883 0.446824 2.50643 -0 0 -2 0.015 0 0 0 0.0353429 
55 1 -0.0959971 0.425903 2.52897 -0 0 -2 0.015 0 0 0 0.0353429 
107 1 -0.141609 0.176798 2.55562 -0 0 -2 0.015 0 0 0 0.0353429 
141 1 -0.136875 0.266764 2.53301 -0 0 -2 0.015 0 0 0 0.0353429 
87 1 -0.113676 0.385123 2.54487 -0 0 -2 0.015 0 0 0 0.0353429 
1 1 -0.142366 0.459394 2.54237 -0 0 -2 0.025 0 0 0 0.163625 
21 1 -0.0470047 0.46853 2.53888 -0 0 -2 0.025 0 0 0 0.163625 
142 1 -0.0724928 0.196693 2.57523 -0 0 -2 0.015 0 0 0 0.0353429 
6 1 -0.109435 0.215083 2.58684 -0 0 -2 0.025 0 0 0 0.163625 
149 1 -0.107316 0.253342 2.5749 -0 0 -2 0.015 0 0 0 0.0353429 
112 1 -0.073338 0.257454 2.56631 -0 0 -2 0.015 0 0 0 0.0353429 
94 1 -0.127866 0.29863 2.56184 -0 0 -2 0.015 0 0 0 0.0353429 
15 1 -0.0916636 0.308509 2.58868 -0 0 -2 0.025 0 0 0 0.163625 
84 1 -0.116406 0.338316 2.5649 -0 0 -2 0.015 0 0 0 0.0353429 
80 1 -0.102893 0.380978 2.58268 -0 0 -2 0.015 0 0 0 0.0353429 
47 1 -0.140465 0.419385 2.57527 -0 0 -2 0.025 0 0 0 0.163625 
145 1 -0.0934491 0.411838 2.57612 -0 0 -2 0.015 0 0 0 0.0353429 
147 1 -0.100309 0.450661 2.56209 -0 0 -2 0.015 0 0 0 0.0353429 
32 1 -0.149633 0.185622 2.59466 -0 0 -2 0.025 0 0 0 0.163625 
138 1 -0.0317395 0.192376 2.60276 -0 0 -2 0.015 0 0 0 0.0353429 
135 1 -0.140472 0.259953 2.59476 -0 0 -2 0.015 0 0 0 0.0353429 
128 1 -0.145291 0.342562 2.60347 -0 0 -2 0.015 0 0 0 0.0353429 
121 1 -0.0679495 0.444838 2.61197 -0 0 -2 0.015 0 0 0 0.0353429 
62 1 -0.0849655 0.467496 2.59466 -0 0 -2 0.015 0 0 0 0.0353429 
61 1 -0.0231802 0.176945 2.63897 -0 0 -2 0.015 0 0 0 0.0353429 
52 1 -0.100497 0.1916 2.64256 -0 0 -2 0.015 0 0 0 0.0353429 
129 1 -0.0553418 0.210019 2.62772 -0 0 -2 0.015 0 0 0 0.0353429 
79 1 -0.0179342 0.210984 2.639 -0 0 -2 0.015 0 0 0 0.0353429 
5 1 -0.137704 0.218352 2.64725 -0 0 -2 0.025 0 0 0 0.163625 
7 1 -0.0712578 0.257024 2.64871 -0 0 -2 0.025 0 0 0 0.163625 
13 1 -0.146779 0.291061 2.63406 -0 0 -2 0.025 0 0 0 0.163625 
101 1 -0.102489 0.301504 2.63229 -0 0 -2 0.015 0 0 0 0.0353429 
20 1 -0.124339 0.346193 2.6458 -0 0 -2 0.025 0 0 0 0.163625 
91 1 -0.124131 0.396082 2.63921 -0 0 -2 0.015 0 0 0 0.0353429 
37 1 -0.0716655 0.404405 2.63205 -0 0 -2 0.025 0 0 0 0.163625 
46 1 -0.032303 0.465744 2.63431 -0 0 -2 0.025 0 0 0 0.163625 
65 1 -0.147981 0.187337 2.67804 -0 0 -2 0.015 0 0 0 0.0353429 
58 1 -0.0969698 0.285666 2.67191 -0 0 -2 0.015 0 0 0 0.0353429 
86 1 -0.142939 0.382764 2.66419 -0 0 -2 0.015 0 0 0 0.0353429 
124 1 -0.136447 0.411167 2.67185 -0 0 -2 0.015 0 0 0 0.0353429 
9 1 -0.0320364 0.416484 2.66571 -0 0 -2 0.025 0 0 0 0.163625 
41 1 -0.107908 0.465288 2.67689 -0 0 -2 0.025 0 0 0 0.163625 
132 1 -0.0234712 0.214078 2.70338 -0 0 -2 0.015 0 0 0 0.0353429 
48 1 -0.144727 0.271852 2.70301 -0 0 -2 0.025 0 0 0 0.163625 
53 1 -0.106432 0.3161 2.70398 -0 0 -2 0.015 0 0 0 0.0353429 
104 1 -0.138444 0.347252 2.69486 -0 0 -2 0.015 0 0 0 0.0353429 
131 1 -0.025873 0.449155 2.69054 -0 0 -2 0.015 0 0 0 0.0353429 
49 1 -0.0613084 0.18937 2.71236 -0 0 -2 0.025 0 0 0 0.163625 
25 1 -0.104447 0.217985 2.73421 -0 0 -2 0.025 0 0 0 0.163625 
127 1 -0.0304133 0.231126 2.72899 -0 0 -2 0.015 0 0 0 0.0353429 
42 1 -0.132916 0.309326 2.74088 -0 0 -2 0.025 0 0 0 0.163625 
16 1 -0.129915 0.412384 2.7138 -0 0 -2 0.025 0 0 0 0.163625 
82 1 -0.0851821 0.402207 2.71669 -0 0 -2 0.015 0 0 0 0.0353429 
27 1 -0.0637137 0.439115 2.71409 -0 0 -2 0.025 0 0 0 0.163625 
63 1 -0.147823 0.467223 2.72096 -0 0 -2 0.015 0 0 0 0.0353429 
56 1 -0.11556 0.462639 2.72892 -0 0 -2 0.015 0 0 0 0.0353429 
123 1 -0.11925 0.365597 2.74258 -0 0 -2 0.015 0 0 0 0.0353429 
125 1 -0.0960051 0.419402 2.74992 -0 0 -2 0.015 0 0 0 0.0353429 
64 1 -0.145219 0.427667 2.74904 -0 0 -2 0.015 0 0 0 0.0353429 
203 1 0.0667127 0.163233 2.159 0 -0.5 -2.25805 0.015 0 0 -0.346714 0.0353429 
284 1 0.0765149 0.194696 2.15169 0 -0.5 -2.28954 0.015 0 0 -0.346714 0.0353429 
289 1 0.0924619 0.2887 2.14366 0.0203384 -0.134604 -2.68255 0.015 0 0 -0.346714 0.0353429 
214 1 0.144386 0.349733 2.16317 0 -0.5 -2.23981 0.015 0 0 -0.346714 0.0353429 
213 1 0.0350777 0.40257 2.15905 0 -0.5 -2.25776 0.015 0 0 -0.346714 0.0353429 
272 1 0.0168276 0.437548 2.15699 0 -0.5 -2.26678 0.015 0 0 -0.346714 0.0353429 
241 1 0.0849537 0.433018 2.16517 0 -0.5 -2.23107 0.015 0 0 -0.346714 0.0353429 
220 1 0.0392027 0.197076 2.18483 -0.0669262 -0.554313 -2.12403 0.015 0 0 -0.346714 0.0353429 
259 1 0.149131 0.203826 2.17012 0 -0.5 -2.2092 0.015 0 0 -0.346714 0.0353429 
263 1 0.025742 0.224494 2.17525 0 -0.5 -2.18624 0.015 0 0 -0.346714 0.0353429 
206 1 0.0663333 0.220176 2.17536 0.299819 -0.223644 -2.27548 0.015 0 0 -0.346714 0.0353429 
237 1 0.117019 0.224451 2.16693 0 -0.5 -2.22332 0.015 0 0 -0.346714 0.0353429 
199 1 0.0905715 0.260681 2.18629 0.0622016 -0.307221 -2.32958 0.025 2.60925 7.75188 -9.84664 0.163625 
177 1 0.123683 0.300884 2.18735 0 -0.5 -2.13131 0.025 0 0 -1.60516 0.163625 
171 1 0.0955264 0.365107 2.16984 0 -0.5 -2.21047 0.025 0 0 -1.60516 0.163625 
226 1 0.110692 0.411304 2.16769 0 -0.5 -2.21999 0.015 0 0 -0.346714 0.0353429 
222 1 0.123753 0.203346 2.22426 -0 0 -2 0.015 0 0 0 0.0353429 
216 1 0.0815804 0.236084 2.21527 -0 0 -2 0.015 0 0 0 0.0353429 
290 1 0.140367 0.349539 2.19749 0 -0.5 -2.08412 0.015 0 0 -0.346714 0.0353429 
249 1 0.0491797 0.403421 2.21103 0 -0.5 -2.01937 0.015 0 0 -0.346714 0.0353429 
270 1 0.0946744 0.395344 2.21631 -0 0 -2 0.015 0 0 0 0.0353429 
294 1 0.128315 0.426257 2.22259 -0 0 -2 0.015 0 0 0 0.0353429 
166 1 0.0609489 0.467253 2.2042 0 -0.5 -2.05234 0.025 0 0 -1.60516 0.163625 
184 1 0.11251 0.465841 2.2017 0 -0.5 -2.06421 0.025 0 0 -1.60516 0.163625 
180 1 0.0442532 0.216579 2.2384 -0 0 -2 0.025 0 0 0 0.163625 
282 1 0.10026 0.326414 2.24607 -0 0 -2 0.015 0 0 0 0.0353429 
253 1 0.123075 0.306604 2.24087 -0 0 -2 0.015 0 0 0 0.0353429 
170 1 0.131887 0.34958 2.23806 -0 0 -2 0.025 0 0 0 0.163625 
231 1 0.0350342 0.41973 2.23858 -0 0 -2 0.015 0 0 0 0.0353429 
169 1 0.0892107 0.426518 2.24762 -0 0 -2 0.025 0 0 0 0.163625 
209 1 0.0969746 0.190163 2.25935 -0 0 -2 0.015 0 0 0 0.0353429 
296 1 0.146983 0.302216 2.27415 -0 0 -2 0.015 0 0 0 0.0353429 
278 1 0.113612 0.32137 2.27339 -0 0 -2 0.015 0 0 0 0.0353429 
162 1 0.0478022 0.420462 2.28699 -0 0 -2 0.025 0 0 0 0.163625 
257 1 0.139837 0.433996 2.2736 -0 0 -2 0.015 0 0 0 0.0353429 
153 1 0.0895866 0.175295 2.30887 -0 0 -2 0.025 0 0 0 0.163625 
235 1 0.134937 0.184285 2.29541 -0 0 -2 0.015 0 0 0 0.0353429 
168 1 0.0261487 0.219274 2.29034 -0 0 -2 0.025 0 0 0 0.163625 
211 1 0.0694768 0.231402 2.31729 -0 0 -2 0.015 0 0 0 0.0353429 
269 1 0.141487 0.214974 2.28913 -0 0 -2 0.015 0 0 0 0.0353429 
185 1 0.0936576 0.261841 2.29832 -0 0 -2 0.025 0 0 0 0.163625 
217 1 0.133752 0.263751 2.29477 -0 0 -2 0.015 0 0 0 0.0353429 
251 1 0.126174 0.326714 2.31439 -0 0 -2 0.015 0 0 0 0.0353429 
182 1 0.114565 0.374239 2.29317 -0 0 -2 0.025 0 0 0 0.163625 
176 1 0.0399362 0.470522 2.2948 -0 0 -2 0.025 0 0 0 0.163625 
286 1 0.147755 0.46304 2.29433 -0 0 -2 0.015 0 0 0 0.0353429 
204 1 0.134881 0.215418 2.33432 -0 0 -2 0.015 0 0 0 0.0353429 
161 1 0.135356 0.273135 2.33387 -0 0 -2 0.025 0 0 0 0.163625 
230 1 0.118982 0.311717 2.34163 -0 0 -2 0.015 0 0 0 0.0353429 
228 1 0.0279693 0.421998 2.3374 -0 0 -2 0.015 0 0 0 0.0353429 
291 1 0.140432 0.400348 2.32371 -0 0 -2 0.015 0 0 0 0.0353429 
300 1 0.149285 0.45152 2.3299 -0 0 -2 0.015 0 0 0 0.0353429 
159 1 0.087245 0.458888 2.32429 -0 0 -2 0.025 0 0 0 0.163625 
175 1 0.0941494 0.204234 2.35031 -0 0 -2 0.025 0 0 0 0.163625 
299 1 0.0153001 0.223001 2.36917 -0 0 -2 0.015 0 0 0 0.0353429 
293 1 0.0548164 0.239515 2.36553 -0 0 -2 0.015 0 0 0 0.0353429 
200 1 0.112803 0.253719 2.37674 -0 0 -2 0.025 0 0 0 0.163625 
192 1 0.134392 0.364514 2.36115 -0 0 -2 0.025 0 0 0 0.163625 
285 1 0.0870748 0.401534 2.36191 -0 0 -2 0.015 0 0 0 0.0353429 
275 1 0.0211058 0.446622 2.36836 -0 0 -2 0.015 0 0 0 0.0353429 
256 1 0.0868225 0.433952 2.35942 -0 0 -2 0.015 0 0 0 0.0353429 
250 1 0.138716 0.448388 2.35822 -0 0 -2 0.015 0 0 0 0.0353429 
246 1 0.0494565 0.4682 2.36225 -0 0 -2 0.015 0 0 0 0.0353429 
240 1 0.0956629 0.4648 2.36333 -0 0 -2 0.015 0 0 0 0.0353429 
189 1 0.0509787 0.189477 2.39916 -0 0 -2 0.025 0 0 0 0.163625 
202 1 0.126943 0.194204 2.38266 -0 0 -2 0.015 0 0 0 0.0353429 
245 1 0.0868358 0.21853 2.38774 -0 0 -2 0.015 0 0 0 0.0353429 
247 1 0.0532922 0.24431 2.39602 -0 0 -2 0.015 0 0 0 0.0353429 
154 1 0.116388 0.333622 2.405 -0 0 -2 0.025 0 0 0 0.163625 
255 1 0.0340792 0.41171 2.37962 -0 0 -2 0.015 0 0 0 0.0353429 
252 1 0.131256 0.420269 2.37963 -0 0 -2 0.015 0 0 0 0.0353429 
210 1 0.0872868 0.178716 2.43368 -0 0 -2 0.015 0 0 0 0.0353429 
287 1 0.130384 0.17682 2.41313 -0 0 -2 0.015 0 0 0 0.0353429 
288 1 0.0326968 0.220656 2.41817 -0 0 -2 0.015 0 0 0 0.0353429 
181 1 0.070397 0.216714 2.43754 -0 0 -2 0.025 0 0 0 0.163625 
165 1 0.148355 0.269976 2.43187 -0 0 -2 0.025 0 0 0 0.163625 
295 1 0.103955 0.389653 2.4197 -0 0 -2 0.015 0 0 0 0.0353429 
156 1 0.0411221 0.437707 2.42094 -0 0 -2 0.025 0 0 0 0.163625 
190 1 0.11779 0.446077 2.40962 -0 0 -2 0.025 0 0 0 0.163625 
233 1 0.0406697 0.190327 2.45887 -0 0 -2 0.015 0 0 0 0.0353429 
260 1 0.0198171 0.221855 2.45207 -0 0 -2 0.015 0 0 0 0.0353429 
152 1 0.089118 0.280769 2.44852 -0 0 -2 0.025 0 0 0 0.163625 
279 1 0.11959 0.339787 2.45316 -0 0 -2 0.015 0 0 0 0.0353429 
262 1 0.0888361 0.372678 2.45632 -0 0 -2 0.015 0 0 0 0.0353429 
207 1 0.128901 0.387724 2.46566 -0 0 -2 0.015 0 0 0 0.0353429 
234 1 0.0945525 0.423196 2.45371 -0 0 -2 0.015 0 0 0 0.0353429 
194 1 0.131621 0.447751 2.46416 -0 0 -2 0.025 0 0 0 0.163625 
208 1 0.0680799 0.458746 2.45703 -0 0 -2 0.015 0 0 0 0.0353429 
212 1 0.0737637 0.196713 2.4881 -0 0 -2 0.015 0 0 0 0.0353429 
236 1 0.111584 0.210187 2.48811 -0 0 -2 0.015 0 0 0 0.0353429 
242 1 0.131055 0.286068 2.49837 -0 0 -2 0.015 0 0 0 0.0353429 
191 1 0.0609008 0.410844 2.49004 -0 0 -2 0.025 0 0 0 0.163625 
223 1 0.0343911 0.467936 2.47355 -0 0 -2 0.015 0 0 0 0.0353429 
178 1 0.0370442 0.176531 2.50548 -0 0 -2 0.025 0 0 0 0.163625 
258 1 0.135516 0.183364 2.52548 -0 0 -2 0.015 0 0 0 0.0353429 
224 1 0.132465 0.234727 2.50554 -0 0 -2 0.015 0 0 0 0.0353429 
221 1 0.0987988 0.270466 2.51023 -0 0 -2 0.015 0 0 0 0.0353429 
179 1 0.136485 0.334335 2.52133 -0 0 -2 0.025 0 0 0 0.163625 
248 1 0.0851139 0.371469 2.52856 -0 0 -2 0.015 0 0 0 0.0353429 
205 1 0.0941484 0.176621 2.55185 -0 0 -2 0.015 0 0 0 0.0353429 
227 1 0.137271 0.1866 2.55732 -0 0 -2 0.015 0 0 0 0.0353429 
187 1 0.0681893 0.23526 2.53352 -0 0 -2 0.025 0 0 0 0.163625 
232 1 0.13999 0.251489 2.54733 -0 0 -2 0.015 0 0 0 0.0353429 
174 1 0.030822 0.423363 2.54781 -0 0 -2 0.025 0 0 0 0.163625 
157 1 0.115469 0.419287 2.5355 -0 0 -2 0.025 0 0 0 0.163625 
264 1 0.0357265 0.464363 2.52967 -0 0 -2 0.015 0 0 0 0.0353429 
277 1 0.0674794 0.455945 2.53645 -0 0 -2 0.015 0 0 0 0.0353429 
201 1 0.0267726 0.186335 2.57143 -0 0 -2 0.025 0 0 0 0.163625 
276 1 0.0937292 0.21136 2.56547 -0 0 -2 0.015 0 0 0 0.0353429 
265 1 0.115746 0.204637 2.58881 -0 0 -2 0.015 0 0 0 0.0353429 
225 1 0.0772421 0.22912 2.58696 -0 0 -2 0.015 0 0 0 0.0353429 
158 1 0.0866624 0.276126 2.57074 -0 0 -2 0.025 0 0 0 0.163625 
254 1 0.137401 0.322401 2.57636 -0 0 -2 0.015 0 0 0 0.0353429 
172 1 0.128434 0.362446 2.56647 -0 0 -2 0.025 0 0 0 0.163625 
283 1 0.102888 0.442022 2.58345 -0 0 -2 0.015 0 0 0 0.0353429 
173 1 0.0548933 0.463589 2.58684 -0 0 -2 0.025 0 0 0 0.163625 
229 1 0.102013 0.176876 2.605 -0 0 -2 0.015 0 0 0 0.0353429 
196 1 0.0520917 0.20732 2.61478 -0 0 -2 0.025 0 0 0 0.163625 
271 1 0.0988759 0.311205 2.59376 -0 0 -2 0.015 0 0 0 0.0353429 
274 1 0.108637 0.339608 2.5931 -0 0 -2 0.015 0 0 0 0.0353429 
183 1 0.0737852 0.400871 2.59743 -0 0 -2 0.025 0 0 0 0.163625 
281 1 0.0312292 0.432852 2.61063 -0 0 -2 0.015 0 0 0 0.0353429 
188 1 0.140755 0.442261 2.61641 -0 0 -2 0.025 0 0 0 0.163625 
163 1 0.107222 0.236676 2.62043 -0 0 -2 0.025 0 0 0 0.163625 
155 1 0.141768 0.302505 2.62115 -0 0 -2 0.025 0 0 0 0.163625 
298 1 0.114914 0.351461 2.64845 -0 0 -2 0.015 0 0 0 0.0353429 
268 1 0.140569 0.388665 2.63004 -0 0 -2 0.015 0 0 0 0.0353429 
197 1 0.0581936 0.42558 2.64816 -0 0 -2 0.025 0 0 0 0.163625 
280 1 0.0367193 0.456786 2.63177 -0 0 -2 0.015 0 0 0 0.0353429 
273 1 0.0779061 0.461373 2.64984 -0 0 -2 0.015 0 0 0 0.0353429 
267 1 0.101401 0.464343 2.62938 -0 0 -2 0.015 0 0 0 0.0353429 
218 1 0.0164873 0.217058 2.65637 -0 0 -2 0.015 0 0 0 0.0353429 
238 1 0.105443 0.363301 2.67641 -0 0 -2 0.015 0 0 0 0.0353429 
164 1 0.0527853 0.200711 2.69268 -0 0 -2 0.025 0 0 0 0.163625 
261 1 0.0852607 0.230216 2.7109 -0 0 -2 0.015 0 0 0 0.0353429 
160 1 0.118533 0.219824 2.68638 -0 0 -2 0.025 0 0 0 0.163625 
215 1 0.0767991 0.264474 2.69577 -0 0 -2 0.015 0 0 0 0.0353429 
297 1 0.141884 0.27502 2.69354 -0 0 -2 0.015 0 0 0 0.0353429 
195 1 0.147227 0.360394 2.68252 -0 0 -2 0.025 0 0 0 0.163625 
292 1 0.0287531 0.422464 2.69568 -0 0 -2 0.015 0 0 0 0.0353429 
193 1 0.102412 0.413293 2.70852 -0 0 -2 0.025 0 0 0 0.163625 
198 1 0.0617553 0.466461 2.70862 -0 0 -2 0.025 0 0 0 0.163625 
167 1 0.118751 0.462916 2.68072 -0 0 -2 0.025 0 0 0 0.163625 
219 1 0.0278687 0.201322 2.73855 -0 0 -2 0.015 0 0 0 0.0353429 
239 1 0.126558 0.237343 2.73531 -0 0 -2 0.015 0 0 0 0.0353429 
186 1 0.10183 0.291927 2.72808 -0 0 -2 0.025 0 0 0 0.163625 
243 1 0.113126 0.365244 2.7135 -0 0 -2 0.015 0 0 0 0.0353429 
244 1 0.0497502 0.427977 2.73171 -0 0 -2 0.015 0 0 0 0.0353429 
266 1 0.0917737 0.36017 2.74511 -0 0 -2 0.015 0 0 0 0.0353429 
