ITEM: TIMESTEP
66400
ITEM: NUMBER OF ATOMS
900
ITEM: BOX BOUNDS mm mm mm
-1 1
-1 1
-1.43656 2.85
ITEM: ATOMS id type x y z vx vy vz radius fx fy fz mass 
68 1 -0.0997213 -0.0867286 -1.1995 0 -0.5 -8.4257 0.015 0 0 -0.346714 0.0353429 
137 1 -0.0913312 -0.0333601 -1.17933 -0.00924354 -0.479856 -8.40284 0.015 0 0 -0.346714 0.0353429 
45 1 -0.0943793 -0.135762 -1.15599 0 -0.5 -8.37488 0.025 0 0 -1.60516 0.163625 
122 1 -0.0676237 -0.0844332 -1.15507 0.00811842 -0.517403 -8.37326 0.015 0 0 -0.346714 0.0353429 
33 1 -0.129286 0.104605 -1.16529 0 -0.5 -8.38577 0.025 0 0 -1.60516 0.163625 
119 1 -0.0370509 -0.146811 -1.11098 0 -0.5 -8.32201 0.015 0 0 -0.346714 0.0353429 
43 1 -0.116198 0.0157854 -1.12373 0 -0.5 -8.33701 0.025 0 0 -1.60516 0.163625 
111 1 -0.0487783 0.1481 -1.12281 0 -0.5 -8.33594 0.015 0 0 -0.346714 0.0353429 
75 1 -0.0493142 -0.0963279 -1.08449 0 -0.5 -8.29071 0.015 0 0 -0.346714 0.0353429 
78 1 -0.0422369 0.111955 -1.0991 0 -0.5 -8.30798 0.015 0 0 -0.346714 0.0353429 
220 1 -0.00255923 -0.148816 -1.05046 -0.0669262 -0.554313 -8.24547 0.015 0 0 -0.346714 0.0353429 
89 1 -0.129145 -0.0676921 -1.07471 0 -0.5 -8.27914 0.015 0 0 -0.346714 0.0353429 
59 1 -0.0865612 0.0608678 -1.05305 0 -0.5 -8.25343 0.015 0 0 -0.346714 0.0353429 
92 1 -0.131017 0.155327 -1.03013 0 -0.5 -8.22616 0.015 0 0 -0.346714 0.0353429 
26 1 -0.0235404 0.028335 -0.977613 0.14857 -0.341553 -8.19521 0.025 0 0 -1.60516 0.163625 
98 1 -0.147127 0.00444182 -0.945368 0 -0.5 -8.12443 0.015 0 0 -0.346714 0.0353429 
151 1 -0.0686397 0.086527 -0.946251 0 -0.5 -8.12551 0.015 0 0 -0.346714 0.0353429 
8 1 -0.104188 -0.128537 -0.919753 0 -0.5 -8.09343 0.025 0 0 -1.60516 0.163625 
3 1 -0.141317 0.0693879 -0.908009 0 -0.5 -8.07921 0.025 0 0 -1.60516 0.163625 
140 1 -0.125739 -0.0184436 -0.865893 0 -0.5 -8.0279 0.015 0 0 -0.346714 0.0353429 
72 1 -0.105673 0.106796 -0.887771 0 -0.5 -8.05458 0.015 0 0 -0.346714 0.0353429 
40 1 -0.104474 0.158198 -0.864213 0 -0.5 -8.02584 0.025 0 0 -1.60516 0.163625 
100 1 -0.0681017 -0.060079 -0.858587 0 -0.5 -8.01897 0.015 0 0 -0.346714 0.0353429 
118 1 -0.0372647 0.141681 -0.850897 0 -0.5 -8.00956 0.015 0 0 -0.346714 0.0353429 
117 1 -0.0596227 -0.116979 -0.828354 0 -0.5 -7.98189 0.015 0 0 -0.346714 0.0353429 
148 1 -0.209029 0.0420151 -0.816677 -0.171679 -0.397353 -8.03123 0.015 0 0 -0.346714 0.0353429 
51 1 -0.164689 -0.107211 -0.789985 -0.0265052 -0.519812 -7.92999 0.025 0 0 -1.60516 0.163625 
282 1 -0.0583204 -0.0830925 -0.781911 -0.2609 -0.673185 -7.90981 0.015 0 0 -0.346714 0.0353429 
90 1 -0.146535 0.159667 -0.742642 0 -0.5 -7.87585 0.015 0 0 -0.346714 0.0353429 
60 1 -0.0770515 -0.108072 -0.713579 0 -0.5 -7.83955 0.015 0 0 -0.346714 0.0353429 
11 1 -0.0941228 0.0612979 -0.72571 0.022917 -0.457889 -7.86871 0.025 0 0 -1.60516 0.163625 
50 1 -0.130982 0.116355 -0.711455 0 -0.5 -7.8369 0.025 0 0 -1.60516 0.163625 
74 1 -0.0790012 0.103893 -0.663591 0 -0.5 -7.77677 0.015 0 0 -0.346714 0.0353429 
44 1 -0.125916 -0.116403 -0.62724 0 -0.5 -7.73076 0.025 0 0 -1.60516 0.163625 
105 1 -0.267813 0.0741298 -0.650714 -0.321192 -0.368687 -7.75242 0.015 0 0 -0.346714 0.0353429 
76 1 -0.0202065 0.13207 -0.641783 0 -0.5 -7.7492 0.015 0 0 -0.346714 0.0353429 
36 1 -0.103411 -0.0696875 -0.597782 0 -0.5 -7.69328 0.025 0 0 -1.60516 0.163625 
29 1 -0.0788351 0.146182 -0.606017 0 -0.5 -7.70378 0.025 0 0 -1.60516 0.163625 
54 1 -0.180301 -0.0416707 -0.56571 -0.0956439 -0.529683 -7.64198 0.015 0 0 -0.346714 0.0353429 
114 1 -0.0721199 -0.0394666 -0.549119 -0.00040144 -0.499666 -7.63107 0.015 0 0 -0.346714 0.0353429 
73 1 -0.0639552 -0.0902333 -0.50759 0 -0.5 -7.57743 0.015 0 0 -0.346714 0.0353429 
113 1 -0.118506 0.181198 -0.516325 0 -0.5 -7.58871 0.015 0 0 -0.346714 0.0353429 
146 1 -0.109965 -0.103084 -0.476845 0 -0.5 -7.5375 0.015 0 0 -0.346714 0.0353429 
2 1 -0.110349 0.0570712 -0.499725 0 -0.5 -7.56722 0.025 0 0 -1.60516 0.163625 
12 1 -0.0363281 0.166336 -0.478941 0 -0.5 -7.54025 0.025 0 0 -1.60516 0.163625 
57 1 -0.120673 0.0130605 -0.439581 0 -0.5 -7.48884 0.015 0 0 -0.346714 0.0353429 
88 1 -0.0666498 0.123919 -0.454639 0 -0.5 -7.50856 0.015 0 0 -0.346714 0.0353429 
99 1 -0.146283 -0.0384829 -0.421998 0 -0.5 -7.46579 0.015 0 0 -0.346714 0.0353429 
10 1 -0.0609397 0.146072 -0.416651 0.0635655 -0.375939 -7.52248 0.025 0 0 -1.60516 0.163625 
34 1 -0.138562 0.130511 -0.381384 0 -0.5 -7.41223 0.025 0 0 -1.60516 0.163625 
66 1 -0.0281121 -0.0511772 -0.362665 0 -0.5 -7.38741 0.015 0 0 -0.346714 0.0353429 
83 1 -0.108229 -0.00885398 -0.373458 0 -0.5 -7.40173 0.015 0 0 -0.346714 0.0353429 
19 1 -0.0715757 -0.0287476 -0.368215 0 -0.5 -7.39476 0.025 0 0 -1.60516 0.163625 
71 1 -0.145263 0.174198 -0.35107 0 -0.5 -7.37201 0.015 0 0 -0.346714 0.0353429 
67 1 -0.0183057 -0.0956113 -0.3263 0 -0.5 -7.33895 0.015 0 0 -0.346714 0.0353429 
81 1 -0.0294454 0.14957 -0.344307 0.07636 -0.438847 -7.33492 0.015 0 0 -0.346714 0.0353429 
24 1 -0.138394 -0.0685481 -0.308488 0 -0.5 -7.31511 0.025 0 0 -1.60516 0.163625 
133 1 -0.127566 0.0479444 -0.295918 0 -0.5 -7.29823 0.015 0 0 -0.346714 0.0353429 
95 1 -0.10482 0.135312 -0.290892 0 -0.5 -7.29146 0.015 0 0 -0.346714 0.0353429 
39 1 -0.0696793 0.18501 -0.290733 0 -0.5 -7.29127 0.025 0 0 -1.60516 0.163625 
70 1 -0.107191 -0.0420756 -0.237854 0 -0.5 -7.21975 0.015 0 0 -0.346714 0.0353429 
103 1 -0.135939 -0.0242777 -0.25542 0 -0.5 -7.24359 0.015 0 0 -0.346714 0.0353429 
143 1 -0.11631 0.193682 -0.242902 0 -0.5 -7.22662 0.015 0 0 -0.346714 0.0353429 
28 1 -0.0685748 -0.0659299 -0.201795 0 -0.5 -7.17061 0.025 0 0 -1.60516 0.163625 
97 1 -0.0338223 -0.038856 -0.21472 0 -0.5 -7.18826 0.015 0 0 -0.346714 0.0353429 
115 1 -0.076478 -0.00356894 -0.21414 0 -0.5 -7.18748 0.015 0 0 -0.346714 0.0353429 
85 1 -0.13789 0.118015 -0.210695 0 -0.5 -7.18277 0.015 0 0 -0.346714 0.0353429 
126 1 -0.126374 0.0379074 -0.167502 -0.0288748 -0.539424 -7.10611 0.015 0 0 -0.346714 0.0353429 
134 1 -0.137197 0.158367 -0.187699 0 -0.5 -7.15128 0.015 0 0 -0.346714 0.0353429 
120 1 -0.148569 0.207261 -0.174758 0 -0.5 -7.13352 0.015 0 0 -0.346714 0.0353429 
77 1 -0.0297287 0.186749 -0.177628 0 -0.5 -7.13745 0.015 0 0 -0.346714 0.0353429 
96 1 -0.131998 -0.0389186 -0.149925 0 -0.5 -7.09929 0.015 0 0 -0.346714 0.0353429 
38 1 -0.121616 0.00218791 -0.120971 0 -0.5 -7.05916 0.025 0 0 -1.60516 0.163625 
130 1 -0.0642546 -0.0035593 -0.0671189 0 -0.5 -6.98392 0.015 0 0 -0.346714 0.0353429 
23 1 -0.134189 0.138519 -0.0683717 0 -0.5 -6.98569 0.025 0 0 -1.60516 0.163625 
31 1 -0.140814 -0.0611227 -0.0154989 0 -0.5 -6.91103 0.025 0 0 -1.60516 0.163625 
150 1 -0.100106 -0.0267931 -0.0357184 0 -0.5 -6.93968 0.015 0 0 -0.346714 0.0353429 
18 1 -0.106015 0.203686 -0.0339918 0 -0.5 -6.93723 0.025 0 0 -1.60516 0.163625 
4 1 -0.0330873 0.216857 -0.0350887 0 -0.5 -6.9388 0.025 0 0 -1.60516 0.163625 
106 1 -0.149857 0.334468 -0.0177588 -0.0998962 -0.230395 -7.01977 0.015 0 0 -0.346714 0.0353429 
110 1 -0.0868918 -0.0715835 0.0209253 0 -0.5 -6.85914 0.015 0 0 -0.346714 0.0353429 
93 1 -0.0244706 -0.0598422 0.0393387 0 -0.5 -6.83275 0.015 0 0 -0.346714 0.0353429 
136 1 -0.0832352 0.147008 0.0441226 0 -0.5 -6.82588 0.015 0 0 -0.346714 0.0353429 
17 1 -0.134634 0.0540265 0.0486218 0 -0.5 -6.81941 0.025 0 0 -1.60516 0.163625 
30 1 -0.0481876 0.174857 0.0548273 0 -0.5 -6.81048 0.025 0 0 -1.60516 0.163625 
109 1 -0.0676248 0.22208 0.0533856 0 -0.5 -6.81254 0.015 0 0 -0.346714 0.0353429 
1 1 -0.152002 0.422641 0.0888283 -0.021394 -0.0706631 -6.88473 0.025 0 0 -1.60516 0.163625 
108 1 -0.089121 -0.0391765 0.110682 0 -0.5 -6.72955 0.015 0 0 -0.346714 0.0353429 
69 1 -0.020474 -0.0189175 0.140525 0 -0.5 -6.68589 0.015 0 0 -0.346714 0.0353429 
149 1 -0.0219754 0.0782338 0.165425 0.199959 -0.45766 -6.81949 0.015 0 0 -0.346714 0.0353429 
35 1 -0.146938 0.154792 0.149404 0 -0.5 -6.67285 0.025 0 0 -1.60516 0.163625 
102 1 -0.11709 -0.0391005 0.190601 0 -0.5 -6.61202 0.015 0 0 -0.346714 0.0353429 
139 1 -0.104092 0.018572 0.190393 0 -0.5 -6.61232 0.015 0 0 -0.346714 0.0353429 
144 1 -0.0691235 0.0214741 0.189147 0 -0.5 -6.61418 0.015 0 0 -0.346714 0.0353429 
22 1 -0.102489 0.0863065 0.18365 0 -0.5 -6.62232 0.025 0 0 -1.60516 0.163625 
14 1 -0.0571303 -0.0470245 0.204919 0 -0.5 -6.59074 0.025 0 0 -1.60516 0.163625 
141 1 -0.136875 0.0342642 0.224451 0 -0.5 -6.5616 0.015 0 0 -0.346714 0.0353429 
55 1 -0.0960006 0.192402 0.211159 -7.52477e-06 -0.49998 -6.58145 0.015 0 0 -0.346714 0.0353429 
94 1 -0.274696 0.200788 0.256724 -0.356499 -0.190573 -6.56899 0.015 0 0 -0.346714 0.0353429 
21 1 -0.0470047 0.2375 0.24369 0 -0.5 -6.53276 0.025 0 0 -1.60516 0.163625 
87 1 -0.113676 0.155588 0.263189 0 -0.5 -6.50343 0.015 0 0 -0.346714 0.0353429 
107 1 -0.141609 -0.0500523 0.297975 0 -0.5 -6.45075 0.015 0 0 -0.346714 0.0353429 
147 1 -0.100309 0.225431 0.318816 0 -0.5 -6.41896 0.015 0 0 -0.346714 0.0353429 
112 1 -0.073338 0.0332787 0.332339 0 -0.5 -6.39826 0.015 0 0 -0.346714 0.0353429 
84 1 -0.116406 0.113786 0.327801 0 -0.5 -6.40523 0.015 0 0 -0.346714 0.0353429 
142 1 -0.0724928 -0.0252522 0.36078 0 -0.5 -6.35451 0.015 0 0 -0.346714 0.0353429 
47 1 -0.140465 0.19745 0.360907 0 -0.5 -6.35432 0.025 0 0 -1.60516 0.163625 
145 1 -0.0934491 0.190113 0.363582 0 -0.5 -6.3502 0.015 0 0 -0.346714 0.0353429 
6 1 -0.0654205 0.0272055 0.390498 0.101461 -0.428163 -6.31369 0.025 0 0 -1.60516 0.163625 
80 1 -0.102893 0.160893 0.384359 0 -0.5 -6.31802 0.015 0 0 -0.346714 0.0353429 
32 1 -0.176193 -0.0491971 0.425712 -0.0613285 -0.540948 -6.25075 0.025 0 0 -1.60516 0.163625 
135 1 -0.140472 0.0428926 0.422386 0 -0.5 -6.25867 0.015 0 0 -0.346714 0.0353429 
15 1 -0.0743228 0.133964 0.43637 0.0430154 -0.390763 -6.20649 0.025 0 0 -1.60516 0.163625 
62 1 -0.0849655 0.250406 0.422025 0 -0.5 -6.25926 0.015 0 0 -0.346714 0.0353429 
280 1 -0.0955716 0.438341 0.436544 -0.323138 -0.0374805 -6.32134 0.015 0 0 -0.346714 0.0353429 
138 1 -0.0317395 -0.0226844 0.447341 0 -0.5 -6.21943 0.015 0 0 -0.346714 0.0353429 
128 1 -0.145291 0.127677 0.449527 0 -0.5 -6.21599 0.015 0 0 -0.346714 0.0353429 
121 1 -0.0679495 0.232078 0.475859 0 -0.5 -6.1743 0.015 0 0 -0.346714 0.0353429 
129 1 -0.0553418 0.00119941 0.524198 0 -0.5 -6.097 0.015 0 0 -0.346714 0.0353429 
61 1 -0.0231802 -0.0290652 0.558317 0 -0.5 -6.04187 0.015 0 0 -0.346714 0.0353429 
79 1 -0.0179342 0.00498431 0.55843 0 -0.5 -6.04167 0.015 0 0 -0.346714 0.0353429 
13 1 -0.146779 0.0838211 0.543431 0 -0.5 -6.066 0.025 0 0 -1.60516 0.163625 
101 1 -0.102489 0.0938245 0.538077 0 -0.5 -6.07463 0.015 0 0 -0.346714 0.0353429 
91 1 -0.124131 0.190132 0.559036 0 -0.5 -6.04069 0.015 0 0 -0.346714 0.0353429 
37 1 -0.0716655 0.196665 0.537347 0 -0.5 -6.07581 0.025 0 0 -1.60516 0.163625 
46 1 -0.032303 0.258569 0.544214 0 -0.5 -6.06472 0.025 0 0 -1.60516 0.163625 
52 1 -0.100497 -0.0135105 0.569167 0 -0.5 -6.02421 0.015 0 0 -0.346714 0.0353429 
5 1 -0.137704 0.0144118 0.583248 0 -0.5 -6.00125 0.025 0 0 -1.60516 0.163625 
7 1 -0.0712578 0.0534494 0.587625 0 -0.5 -5.99409 0.025 0 0 -1.60516 0.163625 
20 1 -0.124339 0.141888 0.578869 0 -0.5 -6.00842 0.025 0 0 -1.60516 0.163625 
86 1 -0.142939 0.183059 0.633719 0 -0.5 -5.91816 0.015 0 0 -0.346714 0.0353429 
9 1 -0.0320364 0.217159 0.638222 0 -0.5 -5.91071 0.025 0 0 -1.60516 0.163625 
65 1 -0.147981 -0.00890329 0.674493 0 -0.5 -5.85018 0.015 0 0 -0.346714 0.0353429 
58 1 -0.0969698 0.0878907 0.65649 0 -0.5 -5.8803 0.015 0 0 -0.346714 0.0353429 
124 1 -0.136447 0.213377 0.656321 0 -0.5 -5.88059 0.015 0 0 -0.346714 0.0353429 
41 1 -0.107908 0.268758 0.671108 0 -0.5 -5.85587 0.025 0 0 -1.60516 0.163625 
131 1 -0.025873 0.25604 0.710864 0 -0.5 -5.78887 0.015 0 0 -0.346714 0.0353429 
104 1 -0.138444 0.155217 0.723348 0 -0.5 -5.76768 0.015 0 0 -0.346714 0.0353429 
49 1 -0.0613084 0.00171045 0.773439 0 -0.5 -5.68184 0.025 0 0 -1.60516 0.163625 
132 1 -0.0234712 0.0241681 0.747784 0 -0.5 -5.72599 0.015 0 0 -0.346714 0.0353429 
48 1 -0.144727 0.081852 0.746742 0 -0.5 -5.72775 0.025 0 0 -1.60516 0.163625 
53 1 -0.106432 0.12634 0.749502 0 -0.5 -5.72304 0.015 0 0 -0.346714 0.0353429 
16 1 -0.129915 0.225079 0.777483 0 -0.5 -5.67488 0.025 0 0 -1.60516 0.163625 
82 1 -0.0851821 0.215627 0.785699 0 -0.5 -5.66065 0.015 0 0 -0.346714 0.0353429 
27 1 -0.0637137 0.251885 0.778324 0 -0.5 -5.6734 0.025 0 0 -1.60516 0.163625 
63 1 -0.147823 0.281713 0.797777 0 -0.5 -5.63966 0.015 0 0 -0.346714 0.0353429 
25 1 -0.104447 0.0357853 0.834909 0 -0.5 -5.57471 0.025 0 0 -1.60516 0.163625 
127 1 -0.0304133 0.0476212 0.820321 0 -0.5 -5.60032 0.015 0 0 -0.346714 0.0353429 
56 1 -0.11556 0.279119 0.820145 0 -0.5 -5.60061 0.015 0 0 -0.346714 0.0353429 
42 1 -0.132916 0.128796 0.853464 0 -0.5 -5.54195 0.025 0 0 -1.60516 0.163625 
123 1 -0.11925 0.185492 0.858168 0 -0.5 -5.53361 0.015 0 0 -0.346714 0.0353429 
361 1 -0.0655065 0.0271594 0.894156 0 -0.5 -5.46945 0.015 0 0 -0.346714 0.0353429 
391 1 -0.0665259 0.22619 0.895901 0 -0.5 -5.46631 0.015 0 0 -0.346714 0.0353429 
64 1 -0.145219 0.249177 0.87599 0 -0.5 -5.50192 0.015 0 0 -0.346714 0.0353429 
125 1 -0.0960051 0.241127 0.878373 0 -0.5 -5.49771 0.015 0 0 -0.346714 0.0353429 
392 1 -0.0201822 -0.000623367 0.897334 0 -0.5 -5.46376 0.015 0 0 -0.346714 0.0353429 
375 1 -0.132504 0.0642129 0.906164 0 -0.5 -5.44787 0.015 0 0 -0.346714 0.0353429 
353 1 -0.0778865 0.0805101 0.930465 0 -0.5 -5.40392 0.015 0 0 -0.346714 0.0353429 
432 1 -0.110656 0.140023 0.945934 0 -0.5 -5.37577 0.015 0 0 -0.346714 0.0353429 
423 1 -0.035066 0.244352 0.943847 0 -0.5 -5.37959 0.015 0 0 -0.346714 0.0353429 
370 1 -0.0476722 0.298061 0.930431 0 -0.5 -5.40402 0.015 0 0 -0.346714 0.0353429 
449 1 -0.121601 0.00497023 0.959782 0 -0.5 -5.35046 0.015 0 0 -0.346714 0.0353429 
348 1 -0.0484712 0.0147536 0.982087 -0.0150753 -0.514502 -5.30631 0.025 0 0 -1.60516 0.163625 
434 1 -0.110177 0.272235 0.987788 0 -0.5 -5.29886 0.015 0 0 -0.346714 0.0353429 
409 1 -0.1116 0.112279 0.990482 0 -0.5 -5.29385 0.015 0 0 -0.346714 0.0353429 
304 1 -0.147639 0.238299 1.0204 0 -0.5 -5.23813 0.025 0 0 -1.60516 0.163625 
368 1 -0.0426125 0.0501031 1.0784 0 -0.5 -5.12836 0.015 0 0 -0.346714 0.0353429 
414 1 -0.12165 0.182412 1.05842 0 -0.5 -5.16642 0.015 0 0 -0.346714 0.0353429 
416 1 -0.148865 0.203752 1.07255 0 -0.5 -5.13954 0.015 0 0 -0.346714 0.0353429 
422 1 -0.0856494 0.266628 1.07636 0 -0.5 -5.13228 0.015 0 0 -0.346714 0.0353429 
327 1 -0.047146 0.275396 1.05233 0 -0.5 -5.178 0.025 0 0 -1.60516 0.163625 
307 1 -0.141488 0.0443164 1.10966 0 -0.5 -5.06822 0.025 0 0 -1.60516 0.163625 
328 1 -0.101567 0.0753596 1.0967 0 -0.5 -5.09324 0.025 0 0 -1.60516 0.163625 
342 1 -0.0942786 0.226007 1.09807 0 -0.5 -5.09059 0.025 0 0 -1.60516 0.163625 
440 1 -0.074831 0.0266332 1.12471 0 -0.5 -5.03899 0.015 0 0 -0.346714 0.0353429 
352 1 -0.144025 0.263939 1.13689 0 -0.5 -5.01525 0.015 0 0 -0.346714 0.0353429 
441 1 -0.0895132 0.304957 1.1101 0 -0.5 -5.06734 0.015 0 0 -0.346714 0.0353429 
388 1 -0.0545692 0.0906855 1.15626 0 -0.5 -4.97719 0.015 0 0 -0.346714 0.0353429 
323 1 -0.131477 0.159813 1.15403 0 -0.5 -4.9816 0.025 0 0 -1.60516 0.163625 
406 1 -0.0920408 0.263666 1.1656 0 -0.5 -4.95875 0.015 0 0 -0.346714 0.0353429 
330 1 -0.125578 0.320028 1.14184 0 -0.5 -5.00554 0.025 0 0 -1.60516 0.163625 
331 1 -0.138106 0.031831 1.22523 0 -0.5 -4.83936 0.025 0 0 -1.60516 0.163625 
418 1 -0.0554251 0.0369403 1.21031 0 -0.5 -4.86947 0.015 0 0 -0.346714 0.0353429 
395 1 -0.110093 0.0878721 1.21815 0 -0.5 -4.85368 0.015 0 0 -0.346714 0.0353429 
318 1 -0.126425 0.237158 1.20765 0 -0.5 -4.87487 0.025 0 0 -1.60516 0.163625 
336 1 -0.025747 0.270523 1.21717 0 -0.5 -4.85564 0.025 0 0 -1.60516 0.163625 
313 1 -0.0392615 0.0756895 1.24019 0 -0.5 -4.80895 0.025 0 0 -1.60516 0.163625 
374 1 -0.133879 0.297467 1.24282 0 -0.5 -4.80355 0.015 0 0 -0.346714 0.0353429 
315 1 -0.0970947 0.142406 1.26662 0 -0.5 -4.7547 0.025 0 0 -1.60516 0.163625 
445 1 -0.0938501 0.212643 1.28415 0 -0.5 -4.7184 0.015 0 0 -0.346714 0.0353429 
407 1 -0.0713596 0.270089 1.26825 0 -0.5 -4.75136 0.015 0 0 -0.346714 0.0353429 
310 1 -0.0919271 0.307993 1.26334 0 -0.5 -4.76147 0.025 0 0 -1.60516 0.163625 
377 1 -0.128279 0.0597203 1.31047 0 -0.5 -4.66337 0.015 0 0 -0.346714 0.0353429 
386 1 -0.118095 0.28111 1.30598 0 -0.5 -4.67278 0.015 0 0 -0.346714 0.0353429 
302 1 -0.0567477 0.0573163 1.34993 0 -0.5 -4.57959 0.025 0 0 -1.60516 0.163625 
401 1 -0.0913429 0.0887804 1.34768 0 -0.5 -4.5844 0.015 0 0 -0.346714 0.0353429 
439 1 -0.132801 0.175897 1.34429 0 -0.5 -4.59165 0.015 0 0 -0.346714 0.0353429 
344 1 -0.147144 0.213445 1.32866 0 -0.5 -4.62491 0.025 0 0 -1.60516 0.163625 
314 1 -0.136534 0.125236 1.36007 0 -0.5 -4.55781 0.025 0 0 -1.60516 0.163625 
413 1 -0.0512121 0.274816 1.37709 0 -0.5 -4.52102 0.015 0 0 -0.346714 0.0353429 
442 1 -0.149932 0.334171 1.37859 0 -0.5 -4.51779 0.015 0 0 -0.346714 0.0353429 
431 1 -0.13363 0.0856506 1.39227 0 -0.5 -4.48796 0.015 0 0 -0.346714 0.0353429 
355 1 -0.0483468 0.104759 1.38405 0 -0.5 -4.50592 0.015 0 0 -0.346714 0.0353429 
354 1 -0.0927402 0.273498 1.39048 0 -0.5 -4.49189 0.015 0 0 -0.346714 0.0353429 
408 1 -0.087028 0.342439 1.38882 0 -0.5 -4.49552 0.015 0 0 -0.346714 0.0353429 
382 1 -0.105518 0.363799 1.40807 0.026541 -0.439017 -4.53111 0.015 0 0 -0.346714 0.0353429 
446 1 -0.116317 0.242626 1.41641 0 -0.5 -4.43489 0.015 0 0 -0.346714 0.0353429 
411 1 -0.0485728 0.325056 1.42531 0 -0.5 -4.41517 0.015 0 0 -0.346714 0.0353429 
427 1 -0.0951566 0.408953 1.43967 0.0988458 -0.172977 -4.56834 0.015 0 0 -0.346714 0.0353429 
399 1 -0.074527 0.108048 1.46343 0 -0.5 -4.32963 0.015 0 0 -0.346714 0.0353429 
436 1 -0.0854574 0.162951 1.46269 0 -0.5 -4.3313 0.015 0 0 -0.346714 0.0353429 
341 1 -0.148816 0.276228 1.46573 0 -0.5 -4.32443 0.025 0 0 -1.60516 0.163625 
389 1 -0.0230912 0.349676 1.46703 0 -0.5 -4.32149 0.015 0 0 -0.346714 0.0353429 
324 1 -0.0498553 0.0627032 1.4874 0 -0.5 -4.27499 0.025 0 0 -1.60516 0.163625 
350 1 -0.147794 0.0953949 1.47646 0 -0.5 -4.3 0.025 0 0 -1.60516 0.163625 
437 1 -0.0723044 0.139232 1.49581 0 -0.5 -4.25566 0.015 0 0 -0.346714 0.0353429 
335 1 -0.126459 0.156418 1.47622 0 -0.5 -4.30059 0.025 0 0 -1.60516 0.163625 
385 1 -0.0696212 0.285365 1.48377 0 -0.5 -4.28333 0.015 0 0 -0.346714 0.0353429 
384 1 -0.173435 0.368452 1.47874 -0.135564 -0.440896 -4.31443 0.015 0 0 -0.346714 0.0353429 
367 1 -0.106717 0.119831 1.53491 0 -0.5 -4.16453 0.015 0 0 -0.346714 0.0353429 
394 1 -0.145405 0.314684 1.52229 0 -0.5 -4.19415 0.015 0 0 -0.346714 0.0353429 
426 1 -0.0179373 0.344964 1.53446 0 -0.5 -4.16561 0.015 0 0 -0.346714 0.0353429 
358 1 -0.127277 0.0867924 1.55067 0 -0.5 -4.12725 0.015 0 0 -0.346714 0.0353429 
326 1 -0.145564 0.216454 1.55257 0 -0.5 -4.12274 0.025 0 0 -1.60516 0.163625 
424 1 -0.133315 0.346039 1.54244 -0.0730123 -0.390635 -4.15578 0.015 0 0 -0.346714 0.0353429 
319 1 -0.0687817 0.366025 1.54773 0 -0.5 -4.13421 0.025 0 0 -1.60516 0.163625 
376 1 -0.0824761 0.131772 1.5731 0 -0.5 -4.07359 0.015 0 0 -0.346714 0.0353429 
433 1 -0.118613 0.0726652 1.60013 0 -0.5 -4.00796 0.015 0 0 -0.346714 0.0353429 
420 1 -0.037203 0.0808256 1.60406 0 -0.5 -3.99835 0.015 0 0 -0.346714 0.0353429 
402 1 -0.101682 0.116287 1.60785 0 -0.5 -3.98903 0.015 0 0 -0.346714 0.0353429 
306 1 -0.116739 0.294034 1.60661 0 -0.5 -3.99207 0.025 0 0 -1.60516 0.163625 
412 1 -0.0937388 0.364584 1.61279 0 -0.5 -3.97686 0.015 0 0 -0.346714 0.0353429 
363 1 -0.0911777 0.193327 1.63243 0 -0.5 -3.92811 0.015 0 0 -0.346714 0.0353429 
360 1 -0.116599 0.217221 1.63071 0 -0.5 -3.93242 0.015 0 0 -0.346714 0.0353429 
397 1 -0.0557758 0.305618 1.63642 0 -0.5 -3.9181 0.015 0 0 -0.346714 0.0353429 
371 1 -0.0449321 0.344104 1.62893 0 -0.5 -3.93684 0.015 0 0 -0.346714 0.0353429 
322 1 -0.131733 0.103564 1.6647 0 -0.5 -3.84668 0.025 0 0 -1.60516 0.163625 
373 1 -0.136858 0.250184 1.67414 0 -0.5 -3.82255 0.015 0 0 -0.346714 0.0353429 
396 1 -0.0958984 0.27066 1.66686 0 -0.5 -3.84119 0.015 0 0 -0.346714 0.0353429 
369 1 -0.138958 0.308563 1.67703 0 -0.5 -3.8151 0.015 0 0 -0.346714 0.0353429 
383 1 -0.0262689 0.326803 1.67815 0 -0.5 -3.81225 0.015 0 0 -0.346714 0.0353429 
381 1 -0.0827007 0.339114 1.6612 0 -0.5 -3.85561 0.015 0 0 -0.346714 0.0353429 
308 1 -0.0785283 0.119244 1.70105 -0.0168546 -0.516386 -3.75105 0.025 0 0 -1.60516 0.163625 
438 1 -0.0987495 0.202333 1.7023 0 -0.5 -3.74956 0.015 0 0 -0.346714 0.0353429 
356 1 -0.111476 0.245564 1.70951 0 -0.5 -3.73063 0.015 0 0 -0.346714 0.0353429 
340 1 -0.149237 0.373237 1.70899 0 -0.5 -3.732 0.025 0 0 -1.60516 0.163625 
415 1 -0.127182 0.15413 1.72336 0 -0.5 -3.69404 0.015 0 0 -0.346714 0.0353429 
343 1 -0.140775 0.212899 1.73063 0 -0.5 -3.67471 0.025 0 0 -1.60516 0.163625 
443 1 -0.0906469 0.300658 1.72128 0 -0.5 -3.69953 0.015 0 0 -0.346714 0.0353429 
351 1 -0.0409452 0.331112 1.73945 0 -0.5 -3.65107 0.015 0 0 -0.346714 0.0353429 
349 1 -0.116564 0.332594 1.7347 0 -0.5 -3.66383 0.025 0 0 -1.60516 0.163625 
390 1 -0.0988461 0.11459 1.76164 0 -0.5 -3.59094 0.015 0 0 -0.346714 0.0353429 
448 1 -0.0329565 0.12357 1.78421 0 -0.5 -3.52874 0.015 0 0 -0.346714 0.0353429 
347 1 -0.0548177 0.16089 1.79006 0 -0.5 -3.51246 0.025 0 0 -1.60516 0.163625 
378 1 -0.121409 0.209198 1.79689 0 -0.5 -3.49333 0.015 0 0 -0.346714 0.0353429 
312 1 -0.134707 0.268718 1.79802 0 -0.5 -3.49019 0.025 0 0 -1.60516 0.163625 
359 1 -0.107325 0.313399 1.80552 0 -0.5 -3.469 0.015 0 0 -0.346714 0.0353429 
417 1 -0.0160313 0.368054 1.798 0 -0.5 -3.49019 0.015 0 0 -0.346714 0.0353429 
346 1 -0.152128 0.414233 1.79492 -0.0151472 -0.325165 -3.54862 0.025 0 0 -1.60516 0.163625 
419 1 -0.111609 0.105519 1.8152 0 -0.5 -3.44153 0.015 0 0 -0.346714 0.0353429 
362 1 -0.0154426 0.155609 1.81229 0 -0.5 -3.44977 0.015 0 0 -0.346714 0.0353429 
421 1 -0.0930175 0.185542 1.82951 0 -0.5 -3.40052 0.015 0 0 -0.346714 0.0353429 
303 1 -0.0551599 0.332479 1.81272 0 -0.5 -3.44859 0.025 0 0 -1.60516 0.163625 
334 1 -0.103439 0.368448 1.8234 0 -0.5 -3.41808 0.025 0 0 -1.60516 0.163625 
325 1 -0.117824 0.229025 1.86655 0 -0.5 -3.29193 0.025 0 0 -1.60516 0.163625 
365 1 -0.142393 0.30737 1.86027 0.0322739 -0.84426 -3.21334 0.015 0 0 -0.346714 0.0353429 
309 1 -0.144284 0.144031 1.89648 0 -0.5 -3.20148 0.025 0 0 -1.60516 0.163625 
320 1 -0.0648735 0.144929 1.88092 0 -0.5 -3.24876 0.025 0 0 -1.60516 0.163625 
387 1 -0.0901615 0.306452 1.89987 0 -0.5 -3.19108 0.015 0 0 -0.346714 0.0353429 
372 1 -0.0702168 0.328237 1.88638 0 -0.5 -3.23228 0.015 0 0 -0.346714 0.0353429 
447 1 -0.122284 0.409789 1.88181 0 -0.5 -3.24612 0.015 0 0 -0.346714 0.0353429 
338 1 -0.0583644 0.397556 1.89839 0 -0.5 -3.19559 0.025 0 0 -1.60516 0.163625 
379 1 -0.0327871 0.146329 1.92486 0 -0.5 -3.11329 0.015 0 0 -0.346714 0.0353429 
430 1 -0.123083 0.191393 1.90694 0 -0.5 -3.1692 0.015 0 0 -0.346714 0.0353429 
403 1 -0.0833248 0.197397 1.91003 0 -0.5 -3.15969 0.015 0 0 -0.346714 0.0353429 
393 1 -0.015571 0.368279 1.92115 0 -0.5 -3.12496 0.015 0 0 -0.346714 0.0353429 
316 1 -0.0983119 0.130111 1.95908 0 -0.5 -3.00351 0.025 0 0 -1.60516 0.163625 
357 1 -0.0584785 0.195214 1.95281 0 -0.5 -3.02392 0.015 0 0 -0.346714 0.0353429 
301 1 -0.0872066 0.369127 1.9605 0.012148 -0.512208 -2.99889 0.025 0 0 -1.60516 0.163625 
329 1 -0.124863 0.40709 1.95673 -0.0138001 -0.485947 -3.0113 0.025 0 0 -1.60516 0.163625 
364 1 -0.0453235 0.160807 1.97128 0 -0.5 -2.96339 0.015 0 0 -0.346714 0.0353429 
321 1 -0.126579 0.201251 1.97229 0 -0.5 -2.96006 0.025 0 0 -1.60516 0.163625 
410 1 -0.145474 0.250536 1.97684 0 -0.5 -2.94495 0.015 0 0 -0.346714 0.0353429 
333 1 -0.0978849 0.263337 1.97326 0 -0.5 -2.95682 0.025 0 0 -1.60516 0.163625 
380 1 -0.127355 0.305976 1.96641 0 -0.5 -2.97948 0.015 0 0 -0.346714 0.0353429 
337 1 -0.142368 0.346838 1.98785 0 -0.5 -2.90806 0.025 0 0 -1.60516 0.163625 
428 1 -0.0387226 0.380002 1.96538 0 -0.5 -2.98291 0.015 0 0 -0.346714 0.0353429 
450 1 -0.0322061 0.424898 1.96662 0 -0.5 -2.97879 0.015 0 0 -0.346714 0.0353429 
425 1 -0.074083 0.138787 2.04076 0 -0.5 -2.72373 0.015 0 0 -0.346714 0.0353429 
311 1 -0.0354402 0.154368 2.05119 0 -0.5 -2.68587 0.025 0 0 -1.60516 0.163625 
332 1 -0.0814262 0.192266 2.02664 0 -0.5 -2.77406 0.025 0 0 -1.60516 0.163625 
400 1 -0.135353 0.235905 2.03028 0 -0.5 -2.76121 0.015 0 0 -0.346714 0.0353429 
317 1 -0.129905 0.278055 2.0478 0 -0.5 -2.69823 0.025 0 0 -1.60516 0.163625 
366 1 -0.144217 0.355022 2.04545 0 -0.5 -2.70676 0.015 0 0 -0.346714 0.0353429 
405 1 -0.038992 0.38939 2.05102 0 -0.5 -2.68645 0.015 0 0 -0.346714 0.0353429 
339 1 -0.0802774 0.40066 2.04023 0 -0.5 -2.7256 0.025 0 0 -1.60516 0.163625 
305 1 -0.0452536 0.437472 2.04075 0 -0.5 -2.72373 0.025 0 0 -1.60516 0.163625 
544 1 -0.00608968 0.46469 2.04635 -0.39021 -0.130746 -2.80717 0.015 0 0 -0.346714 0.0353429 
404 1 -0.119976 0.159844 2.06215 0 -0.5 -2.64555 0.015 0 0 -0.346714 0.0353429 
345 1 -0.128178 0.202674 2.0588 0 -0.5 -2.65791 0.025 0 0 -1.60516 0.163625 
435 1 -0.0960728 0.239976 2.06258 0 -0.5 -2.64398 0.015 0 0 -0.346714 0.0353429 
444 1 -0.0159467 0.435826 2.07811 0 -0.5 -2.58571 0.015 0 0 -0.346714 0.0353429 
714 1 -0.0240605 0.204326 2.09702 0 -0.5 -2.51292 0.015 0 0 -0.346714 0.0353429 
676 1 -0.132839 0.231867 2.10633 0 -0.5 -2.47632 0.015 0 0 -0.346714 0.0353429 
652 1 -0.0683105 0.236338 2.11493 0 -0.5 -2.44199 0.015 0 0 -0.346714 0.0353429 
675 1 -0.130438 0.390433 2.09884 -0.0349785 -0.349711 -2.6408 0.015 0 0 -0.346714 0.0353429 
690 1 -0.0634806 0.402565 2.10062 0 -0.5 -2.49879 0.015 0 0 -0.346714 0.0353429 
634 1 -0.102181 0.424021 2.10186 0 -0.5 -2.49398 0.025 0 0 -1.60516 0.163625 
608 1 -0.0938106 0.172793 2.13795 0 -0.5 -2.34772 0.025 0 0 -1.60516 0.163625 
682 1 -0.0469368 0.168781 2.14251 0 -0.5 -2.32859 0.015 0 0 -0.346714 0.0353429 
629 1 -0.113195 0.283381 2.12174 0 -0.5 -2.41452 0.025 0 0 -1.60516 0.163625 
606 1 -0.12286 0.359565 2.13923 0.00210743 -0.508228 -2.33485 0.025 0 0 -1.60516 0.163625 
708 1 -0.0786991 0.397401 2.139 0 -0.5 -2.3433 0.015 0 0 -0.346714 0.0353429 
669 1 -0.0318411 0.413893 2.11694 0 -0.5 -2.43395 0.015 0 0 -0.346714 0.0353429 
701 1 -0.0870486 0.455674 2.14089 0 -0.5 -2.33535 0.015 0 0 -0.346714 0.0353429 
657 1 -0.0480729 0.206927 2.14754 0 -0.5 -2.3073 0.015 0 0 -0.346714 0.0353429 
735 1 -0.0832421 0.250669 2.15607 0 -0.5 -2.27071 0.015 0 0 -0.346714 0.0353429 
709 1 -0.101732 0.299531 2.17437 0 -0.5 -2.19026 0.015 0 0 -0.346714 0.0353429 
660 1 -0.0183143 0.410377 2.14944 0 -0.5 -2.29916 0.015 0 0 -0.346714 0.0353429 
707 1 -0.0900659 0.199989 2.18701 0 -0.5 -2.13288 0.015 0 0 -0.346714 0.0353429 
618 1 -0.13283 0.217164 2.17879 0 -0.5 -2.17035 0.025 0 0 -1.60516 0.163625 
640 1 -0.0489559 0.219517 2.19961 0 -0.5 -2.07411 0.025 0 0 -1.60516 0.163625 
680 1 -0.0791761 0.254881 2.19408 0 -0.5 -2.10011 0.015 0 0 -0.346714 0.0353429 
649 1 -0.129761 0.333177 2.18761 0 -0.5 -2.13013 0.025 0 0 -1.60516 0.163625 
750 1 -0.0862874 0.364179 2.17985 0 -0.5 -2.16554 0.015 0 0 -0.346714 0.0353429 
616 1 -0.140255 0.425264 2.19998 0 -0.5 -2.07235 0.025 0 0 -1.60516 0.163625 
712 1 -0.0372677 0.47055 2.20531 0 -0.5 -2.04704 0.015 0 0 -0.346714 0.0353429 
677 1 -0.113879 0.190303 2.21459 0 -0.5 -2.00201 0.015 0 0 -0.346714 0.0353429 
736 1 -0.0864872 0.278273 2.2371 -0 0 -2 0.015 0 0 0 0.0353429 
744 1 -0.107021 0.37483 2.2226 -0 0 -2 0.015 0 0 0 0.0353429 
685 1 -0.0969629 0.419298 2.23262 -0 0 -2 0.015 0 0 0 0.0353429 
725 1 -0.0732043 0.427614 2.20983 0 -0.5 -2.02516 0.015 0 0 -0.346714 0.0353429 
748 1 -0.0192599 0.200066 2.26607 -0 0 -2 0.015 0 0 0 0.0353429 
610 1 -0.108705 0.213129 2.25669 -0 0 -2 0.025 0 0 0 0.163625 
692 1 -0.0389882 0.23636 2.24984 -0 0 -2 0.015 0 0 0 0.0353429 
625 1 -0.115962 0.283889 2.26787 -0 0 -2 0.025 0 0 0 0.163625 
722 1 -0.124711 0.413708 2.24988 -0 0 -2 0.015 0 0 0 0.0353429 
683 1 -0.0829948 0.413557 2.25916 -0 0 -2 0.015 0 0 0 0.0353429 
732 1 -0.0691875 0.449832 2.26226 -0 0 -2 0.015 0 0 0 0.0353429 
620 1 -0.0294016 0.445755 2.25502 -0 0 -2 0.025 0 0 0 0.163625 
674 1 -0.11657 0.471494 2.2472 -0 0 -2 0.015 0 0 0 0.0353429 
699 1 -0.0856858 0.473675 2.24599 -0 0 -2 0.015 0 0 0 0.0353429 
705 1 -0.0946775 0.182879 2.2886 -0 0 -2 0.015 0 0 0 0.0353429 
641 1 -0.143995 0.248499 2.29314 -0 0 -2 0.025 0 0 0 0.163625 
678 1 -0.0973357 0.337318 2.27866 -0 0 -2 0.015 0 0 0 0.0353429 
636 1 -0.149776 0.383946 2.27312 -0 0 -2 0.025 0 0 0 0.163625 
698 1 -0.111785 0.421731 2.29455 -0 0 -2 0.015 0 0 0 0.0353429 
696 1 -0.058387 0.410183 2.28564 -0 0 -2 0.015 0 0 0 0.0353429 
648 1 -0.130879 0.464062 2.29015 -0 0 -2 0.025 0 0 0 0.163625 
644 1 -0.140738 0.186408 2.31458 -0 0 -2 0.025 0 0 0 0.163625 
637 1 -0.0618774 0.209032 2.31015 -0 0 -2 0.025 0 0 0 0.163625 
730 1 -0.0250727 0.190561 2.30576 -0 0 -2 0.015 0 0 0 0.0353429 
729 1 -0.0894542 0.239788 2.31148 -0 0 -2 0.015 0 0 0 0.0353429 
724 1 -0.0903421 0.274729 2.32014 -0 0 -2 0.015 0 0 0 0.0353429 
694 1 -0.138308 0.343846 2.30055 -0 0 -2 0.015 0 0 0 0.0353429 
733 1 -0.0833844 0.376757 2.30108 -0 0 -2 0.015 0 0 0 0.0353429 
628 1 -0.0865924 0.407234 2.32801 -0 0 -2 0.025 0 0 0 0.163625 
639 1 -0.0758688 0.455316 2.31746 -0 0 -2 0.025 0 0 0 0.163625 
679 1 -0.13837 0.180668 2.35696 -0 0 -2 0.015 0 0 0 0.0353429 
684 1 -0.0877228 0.214649 2.34238 -0 0 -2 0.015 0 0 0 0.0353429 
627 1 -0.14504 0.290308 2.34797 -0 0 -2 0.025 0 0 0 0.163625 
745 1 -0.114925 0.311202 2.32956 -0 0 -2 0.015 0 0 0 0.0353429 
603 1 -0.121744 0.345667 2.35285 -0 0 -2 0.025 0 0 0 0.163625 
702 1 -0.149858 0.401742 2.35921 -0 0 -2 0.015 0 0 0 0.0353429 
635 1 -0.142362 0.4734 2.35718 -0 0 -2 0.025 0 0 0 0.163625 
703 1 -0.0877381 0.462891 2.35649 -0 0 -2 0.015 0 0 0 0.0353429 
691 1 -0.0734004 0.189006 2.3651 -0 0 -2 0.015 0 0 0 0.0353429 
740 1 -0.0241674 0.189645 2.38076 -0 0 -2 0.015 0 0 0 0.0353429 
706 1 -0.129002 0.229476 2.36081 -0 0 -2 0.015 0 0 0 0.0353429 
704 1 -0.0317726 0.220718 2.38444 -0 0 -2 0.015 0 0 0 0.0353429 
741 1 -0.142229 0.250235 2.37947 -0 0 -2 0.015 0 0 0 0.0353429 
633 1 -0.0885839 0.256976 2.37202 -0 0 -2 0.025 0 0 0 0.163625 
621 1 -0.0949278 0.379245 2.38108 -0 0 -2 0.025 0 0 0 0.163625 
695 1 -0.0580393 0.404144 2.36355 -0 0 -2 0.015 0 0 0 0.0353429 