ITEM: TIMESTEP
93600
ITEM: NUMBER OF ATOMS
1200
ITEM: BOX BOUNDS mm mm mm
-1 1
-1 1
-4.19525 2.85
ITEM: ATOMS id type x y z vx vy vz radius fx fy fz mass 
68 1 -0.0997213 -0.222729 -3.85418 0 -0.5 -11.094 0.015 0 0 -0.346714 0.0353429 
137 1 -0.0938454 -0.163881 -3.82779 -0.00924354 -0.479856 -11.0712 0.015 0 0 -0.346714 0.0353429 
33 1 -0.129286 -0.0313953 -3.80911 0 -0.5 -11.0541 0.025 0 0 -1.60516 0.163625 
45 1 -0.0943793 -0.271762 -3.79685 0 -0.5 -11.0432 0.025 0 0 -1.60516 0.163625 
122 1 -0.0654155 -0.225167 -3.79549 0.00811842 -0.517403 -11.0416 0.015 0 0 -0.346714 0.0353429 
43 1 -0.116198 -0.120215 -3.75429 0 -0.5 -11.0053 0.025 0 0 -1.60516 0.163625 
111 1 -0.0487783 0.0121 -3.75308 0 -0.5 -11.0043 0.015 0 0 -0.346714 0.0353429 
119 1 -0.0370509 -0.282811 -3.73745 0 -0.5 -10.9903 0.015 0 0 -0.346714 0.0353429 
78 1 -0.0422369 -0.0240449 -3.72176 0 -0.5 -10.9763 0.015 0 0 -0.346714 0.0353429 
75 1 -0.0493142 -0.232328 -3.70246 0 -0.5 -10.959 0.015 0 0 -0.346714 0.0353429 
89 1 -0.129145 -0.203692 -3.68953 0 -0.5 -10.9475 0.015 0 0 -0.346714 0.0353429 
220 1 -0.0207631 -0.299589 -3.65612 -0.0669262 -0.554313 -10.9138 0.015 0 0 -0.346714 0.0353429 
59 1 -0.0865612 -0.0751322 -3.66088 0 -0.5 -10.9218 0.015 0 0 -0.346714 0.0353429 
92 1 -0.131017 0.0193272 -3.63054 0 -0.5 -10.8945 0.015 0 0 -0.346714 0.0353429 
98 1 -0.147127 -0.131558 -3.5181 0 -0.5 -10.7928 0.015 0 0 -0.346714 0.0353429 
151 1 -0.0686397 -0.049473 -3.51928 0 -0.5 -10.7938 0.015 0 0 -0.346714 0.0353429 
8 1 -0.104188 -0.264537 -3.48406 0 -0.5 -10.7618 0.025 0 0 -1.60516 0.163625 
3 1 -0.141317 -0.0666121 -3.46845 0 -0.5 -10.7475 0.025 0 0 -1.60516 0.163625 
72 1 -0.105673 -0.029204 -3.44151 0 -0.5 -10.7229 0.015 0 0 -0.346714 0.0353429 
140 1 -0.125739 -0.154444 -3.41237 0 -0.5 -10.6962 0.015 0 0 -0.346714 0.0353429 
100 1 -0.0681017 -0.196079 -3.40264 0 -0.5 -10.6873 0.015 0 0 -0.346714 0.0353429 
40 1 -0.104474 0.0221982 -3.41013 0 -0.5 -10.6942 0.025 0 0 -1.60516 0.163625 
118 1 -0.0372647 0.00568106 -3.39239 0 -0.5 -10.6779 0.015 0 0 -0.346714 0.0353429 
117 1 -0.0596227 -0.252979 -3.36232 0 -0.5 -10.6502 0.015 0 0 -0.346714 0.0353429 
148 1 -0.255726 -0.0660648 -3.36406 -0.171679 -0.397353 -10.6996 0.015 0 0 -0.346714 0.0353429 
51 1 -0.171898 -0.2486 -3.30983 -0.0265052 -0.519812 -10.5983 0.025 0 0 -1.60516 0.163625 
282 1 -0.129285 -0.266199 -3.29627 -0.2609 -0.673185 -10.5781 0.015 0 0 -0.346714 0.0353429 
90 1 -0.146535 0.0236669 -3.24776 0 -0.5 -10.5442 0.015 0 0 -0.346714 0.0353429 
60 1 -0.0770515 -0.244072 -3.20883 0 -0.5 -10.5079 0.015 0 0 -0.346714 0.0353429 
11 1 -0.0878894 -0.0632478 -3.22889 0.022917 -0.457889 -10.537 0.025 0 0 -1.60516 0.163625 
50 1 -0.130982 -0.0196451 -3.20598 0 -0.5 -10.5052 0.025 0 0 -1.60516 0.163625 
74 1 -0.0790012 -0.0321066 -3.14176 0 -0.5 -10.4451 0.015 0 0 -0.346714 0.0353429 
105 1 -0.355177 -0.0261531 -3.12226 -0.321192 -0.368687 -10.4207 0.015 0 0 -0.346714 0.0353429 
76 1 -0.0202065 -0.00392997 -3.11246 0 -0.5 -10.4175 0.015 0 0 -0.346714 0.0353429 
44 1 -0.125916 -0.252403 -3.0929 0 -0.5 -10.3991 0.025 0 0 -1.60516 0.163625 
36 1 -0.103411 -0.205688 -3.05325 0 -0.5 -10.3616 0.025 0 0 -1.60516 0.163625 
29 1 -0.0788351 0.0101821 -3.06434 0 -0.5 -10.3721 0.025 0 0 -1.60516 0.163625 
54 1 -0.206317 -0.185744 -3.00722 -0.0956439 -0.529683 -10.3103 0.015 0 0 -0.346714 0.0353429 
114 1 -0.0722291 -0.175376 -2.98766 -0.00040144 -0.499666 -10.2994 0.015 0 0 -0.346714 0.0353429 
73 1 -0.0639552 -0.226233 -2.93154 0 -0.5 -10.2457 0.015 0 0 -0.346714 0.0353429 
113 1 -0.118506 0.0451977 -2.94335 0 -0.5 -10.257 0.015 0 0 -0.346714 0.0353429 
2 1 -0.110349 -0.0789288 -2.9209 0 -0.5 -10.2355 0.025 0 0 -1.60516 0.163625 
146 1 -0.109965 -0.239084 -2.88994 0 -0.5 -10.2058 0.015 0 0 -0.346714 0.0353429 
12 1 -0.0363281 0.0303359 -2.89278 0 -0.5 -10.2086 0.025 0 0 -1.60516 0.163625 
57 1 -0.120673 -0.122939 -2.83944 0 -0.5 -10.1572 0.015 0 0 -0.346714 0.0353429 
88 1 -0.0666498 -0.0120815 -2.85986 0 -0.5 -10.1769 0.015 0 0 -0.346714 0.0353429 
99 1 -0.146283 -0.174483 -2.81558 0 -0.5 -10.1341 0.015 0 0 -0.346714 0.0353429 
10 1 -0.0436498 0.0438162 -2.82566 0.0635655 -0.375939 -10.1908 0.025 0 0 -1.60516 0.163625 
83 1 -0.108229 -0.144854 -2.74962 0 -0.5 -10.07 0.015 0 0 -0.346714 0.0353429 
34 1 -0.138562 -0.00548901 -2.7604 0 -0.5 -10.0805 0.025 0 0 -1.60516 0.163625 
66 1 -0.0281121 -0.187177 -2.73493 0 -0.5 -10.0557 0.015 0 0 -0.346714 0.0353429 
19 1 -0.0715757 -0.164748 -2.74248 0 -0.5 -10.0631 0.025 0 0 -1.60516 0.163625 
71 1 -0.145263 0.0381975 -2.71915 0 -0.5 -10.0403 0.015 0 0 -0.346714 0.0353429 
67 1 -0.0183057 -0.231611 -2.68538 0 -0.5 -10.0073 0.015 0 0 -0.346714 0.0353429 
81 1 -0.00867547 0.0302036 -2.7023 0.07636 -0.438847 -10.0032 0.015 0 0 -0.346714 0.0353429 
24 1 -0.138394 -0.204548 -2.66109 0 -0.5 -9.98343 0.025 0 0 -1.60516 0.163625 
133 1 -0.127566 -0.0880556 -2.64393 0 -0.5 -9.96655 0.015 0 0 -0.346714 0.0353429 
95 1 -0.10482 -0.000687785 -2.63706 0 -0.5 -9.95978 0.015 0 0 -0.346714 0.0353429 
39 1 -0.0696793 0.04901 -2.63685 0 -0.5 -9.95959 0.025 0 0 -1.60516 0.163625 
103 1 -0.135939 -0.160278 -2.58857 0 -0.5 -9.91191 0.015 0 0 -0.346714 0.0353429 
70 1 -0.107191 -0.178076 -2.56452 0 -0.5 -9.88807 0.015 0 0 -0.346714 0.0353429 
143 1 -0.11631 0.0576819 -2.57143 0 -0.5 -9.89494 0.015 0 0 -0.346714 0.0353429 
28 1 -0.0685748 -0.20193 -2.51509 0 -0.5 -9.83893 0.025 0 0 -1.60516 0.163625 
97 1 -0.0338223 -0.174856 -2.53282 0 -0.5 -9.85658 0.015 0 0 -0.346714 0.0353429 
115 1 -0.076478 -0.139569 -2.53203 0 -0.5 -9.8558 0.015 0 0 -0.346714 0.0353429 
85 1 -0.13789 -0.0179848 -2.5273 0 -0.5 -9.85109 0.015 0 0 -0.346714 0.0353429 
134 1 -0.137197 0.0223666 -2.49574 0 -0.5 -9.8196 0.015 0 0 -0.346714 0.0353429 
77 1 -0.0297287 0.0507485 -2.4819 0 -0.5 -9.80577 0.015 0 0 -0.346714 0.0353429 
120 1 -0.148569 0.0712607 -2.47797 0 -0.5 -9.80184 0.015 0 0 -0.346714 0.0353429 
96 1 -0.131998 -0.174919 -2.44382 0 -0.5 -9.76761 0.015 0 0 -0.346714 0.0353429 
126 1 -0.134228 -0.108816 -2.46326 -0.0288748 -0.539424 -9.77443 0.015 0 0 -0.346714 0.0353429 
38 1 -0.121616 -0.133812 -2.40396 0 -0.5 -9.72748 0.025 0 0 -1.60516 0.163625 
130 1 -0.0642546 -0.139559 -2.32964 0 -0.5 -9.65224 0.015 0 0 -0.346714 0.0353429 
23 1 -0.134189 0.00251902 -2.33137 0 -0.5 -9.65401 0.025 0 0 -1.60516 0.163625 
150 1 -0.100106 -0.162793 -2.2862 0 -0.5 -9.608 0.015 0 0 -0.346714 0.0353429 
18 1 -0.106015 0.067686 -2.28381 0 -0.5 -9.60555 0.025 0 0 -1.60516 0.163625 
4 1 -0.0330873 0.0808569 -2.28533 0 -0.5 -9.60712 0.025 0 0 -1.60516 0.163625 
106 1 -0.177029 0.271801 -2.29003 -0.0998962 -0.230395 -9.68809 0.015 0 0 -0.346714 0.0353429 
31 1 -0.140814 -0.197123 -2.25819 0 -0.5 -9.57935 0.025 0 0 -1.60516 0.163625 
110 1 -0.0868918 -0.207583 -2.20765 0 -0.5 -9.52746 0.015 0 0 -0.346714 0.0353429 
93 1 -0.0244706 -0.195842 -2.18206 0 -0.5 -9.50107 0.015 0 0 -0.346714 0.0353429 
136 1 -0.0832352 0.0110076 -2.17541 0 -0.5 -9.4942 0.015 0 0 -0.346714 0.0353429 
17 1 -0.134634 -0.0819735 -2.16915 0 -0.5 -9.48773 0.025 0 0 -1.60516 0.163625 
30 1 -0.0481876 0.0388572 -2.16051 0 -0.5 -9.4788 0.025 0 0 -1.60516 0.163625 
109 1 -0.0676248 0.0860796 -2.16252 0 -0.5 -9.48086 0.015 0 0 -0.346714 0.0353429 
1 1 -0.157821 0.40342 -2.14671 -0.021394 -0.0706631 -9.55305 0.025 0 0 -1.60516 0.163625 
108 1 -0.089121 -0.175176 -2.08265 0 -0.5 -9.39787 0.015 0 0 -0.346714 0.0353429 
69 1 -0.020474 -0.154917 -2.04093 0 -0.5 -9.35421 0.015 0 0 -0.346714 0.0353429 
35 1 -0.146938 0.018792 -2.0285 0 -0.5 -9.34117 0.025 0 0 -1.60516 0.163625 
102 1 -0.11709 -0.175101 -1.97076 0 -0.5 -9.28034 0.015 0 0 -0.346714 0.0353429 
139 1 -0.104092 -0.117428 -1.97105 0 -0.5 -9.28064 0.015 0 0 -0.346714 0.0353429 
144 1 -0.0691235 -0.114526 -1.9728 0 -0.5 -9.2825 0.015 0 0 -0.346714 0.0353429 
22 1 -0.102489 -0.0496935 -1.98051 0 -0.5 -9.29064 0.025 0 0 -1.60516 0.163625 
14 1 -0.0571303 -0.183025 -1.95065 0 -0.5 -9.25906 0.025 0 0 -1.60516 0.163625 
55 1 -0.0960026 0.0564074 -1.94189 -7.52477e-06 -0.49998 -9.24977 0.015 0 0 -0.346714 0.0353429 
141 1 -0.136875 -0.101736 -1.9232 0 -0.5 -9.22992 0.015 0 0 -0.346714 0.0353429 
87 1 -0.113676 0.0195876 -1.86863 0 -0.5 -9.17175 0.015 0 0 -0.346714 0.0353429 
21 1 -0.0470047 0.1015 -1.89611 0 -0.5 -9.20108 0.025 0 0 -1.60516 0.163625 
94 1 -0.371664 0.148952 -1.89293 -0.356499 -0.190573 -9.23731 0.015 0 0 -0.346714 0.0353429 
107 1 -0.141609 -0.186052 -1.81952 0 -0.5 -9.11907 0.015 0 0 -0.346714 0.0353429 
84 1 -0.116406 -0.0222137 -1.77731 0 -0.5 -9.07355 0.015 0 0 -0.346714 0.0353429 
147 1 -0.100309 0.0894308 -1.79003 0 -0.5 -9.08728 0.015 0 0 -0.346714 0.0353429 
112 1 -0.073338 -0.102721 -1.77088 0 -0.5 -9.06658 0.015 0 0 -0.346714 0.0353429 
142 1 -0.0724928 -0.161252 -1.73054 0 -0.5 -9.02283 0.015 0 0 -0.346714 0.0353429 
145 1 -0.0934491 0.0541128 -1.72656 0 -0.5 -9.01852 0.015 0 0 -0.346714 0.0353429 
47 1 -0.140465 0.0614497 -1.73036 0 -0.5 -9.02264 0.025 0 0 -1.60516 0.163625 
6 1 -0.037823 -0.0892549 -1.68972 0.101461 -0.428163 -8.98201 0.025 0 0 -1.60516 0.163625 
80 1 -0.102893 0.0248925 -1.69703 0 -0.5 -8.98634 0.015 0 0 -0.346714 0.0353429 
32 1 -0.192874 -0.196335 -1.63738 -0.0613285 -0.540948 -8.91907 0.025 0 0 -1.60516 0.163625 
135 1 -0.140472 -0.0931074 -1.64286 0 -0.5 -8.92699 0.015 0 0 -0.346714 0.0353429 
62 1 -0.0849655 0.114406 -1.64338 0 -0.5 -8.92758 0.015 0 0 -0.346714 0.0353429 
280 1 -0.183465 0.428147 -1.64575 -0.323138 -0.0374805 -8.98966 0.015 0 0 -0.346714 0.0353429 
138 1 -0.0317395 -0.158684 -1.60723 0 -0.5 -8.88775 0.015 0 0 -0.346714 0.0353429 
128 1 -0.145291 -0.0083232 -1.60412 0 -0.5 -8.88431 0.015 0 0 -0.346714 0.0353429 
15 1 -0.0626227 0.0276762 -1.61469 0.0430154 -0.390763 -8.87481 0.025 0 0 -1.60516 0.163625 
121 1 -0.0679495 0.0960779 -1.56644 0 -0.5 -8.84262 0.015 0 0 -0.346714 0.0353429 
129 1 -0.0553418 -0.134801 -1.49708 0 -0.5 -8.76532 0.015 0 0 -0.346714 0.0353429 
101 1 -0.102489 -0.0421755 -1.47712 0 -0.5 -8.74295 0.015 0 0 -0.346714 0.0353429 
37 1 -0.0716655 0.0606653 -1.47816 0 -0.5 -8.74413 0.025 0 0 -1.60516 0.163625 
61 1 -0.0231802 -0.165065 -1.44796 0 -0.5 -8.71019 0.015 0 0 -0.346714 0.0353429 
79 1 -0.0179342 -0.131016 -1.4478 0 -0.5 -8.70999 0.015 0 0 -0.346714 0.0353429 
13 1 -0.146779 -0.0521789 -1.46941 0 -0.5 -8.73432 0.025 0 0 -1.60516 0.163625 
91 1 -0.124131 0.054132 -1.44692 0 -0.5 -8.70901 0.015 0 0 -0.346714 0.0353429 
46 1 -0.032303 0.122569 -1.46828 0 -0.5 -8.73304 0.025 0 0 -1.60516 0.163625 
52 1 -0.100497 -0.14951 -1.43231 0 -0.5 -8.69253 0.015 0 0 -0.346714 0.0353429 
20 1 -0.124339 0.00588769 -1.41831 0 -0.5 -8.67674 0.025 0 0 -1.60516 0.163625 
5 1 -0.137704 -0.121588 -1.41198 0 -0.5 -8.66957 0.025 0 0 -1.60516 0.163625 
7 1 -0.0712578 -0.0825506 -1.40566 0 -0.5 -8.66241 0.025 0 0 -1.60516 0.163625 
86 1 -0.142939 0.0470587 -1.33891 0 -0.5 -8.58648 0.015 0 0 -0.346714 0.0353429 
9 1 -0.0320364 0.0811587 -1.33238 0 -0.5 -8.57903 0.025 0 0 -1.60516 0.163625 
58 1 -0.0969698 -0.0481093 -1.30584 0 -0.5 -8.54862 0.015 0 0 -0.346714 0.0353429 
124 1 -0.136447 0.0773765 -1.30609 0 -0.5 -8.54891 0.015 0 0 -0.346714 0.0353429 
65 1 -0.147981 -0.144903 -1.27965 0 -0.5 -8.5185 0.015 0 0 -0.346714 0.0353429 
41 1 -0.107908 0.132758 -1.28458 0 -0.5 -8.52419 0.025 0 0 -1.60516 0.163625 
104 1 -0.138444 0.0192171 -1.20835 0 -0.5 -8.436 0.015 0 0 -0.346714 0.0353429 
131 1 -0.025873 0.12004 -1.2266 0 -0.5 -8.45719 0.015 0 0 -0.346714 0.0353429 
132 1 -0.0234712 -0.111832 -1.17258 0 -0.5 -8.39431 0.015 0 0 -0.346714 0.0353429 
48 1 -0.144727 -0.054148 -1.1741 0 -0.5 -8.39607 0.025 0 0 -1.60516 0.163625 
53 1 -0.106432 -0.00965971 -1.17006 0 -0.5 -8.39136 0.015 0 0 -0.346714 0.0353429 
49 1 -0.0613084 -0.13429 -1.13491 0 -0.5 -8.35016 0.025 0 0 -1.60516 0.163625 
82 1 -0.0851821 0.0796269 -1.11689 0 -0.5 -8.32897 0.015 0 0 -0.346714 0.0353429 
16 1 -0.129915 0.0890792 -1.12897 0 -0.5 -8.3432 0.025 0 0 -1.60516 0.163625 
27 1 -0.0637137 0.115885 -1.12773 0 -0.5 -8.34172 0.025 0 0 -1.60516 0.163625 
63 1 -0.147823 0.145713 -1.0991 0 -0.5 -8.30798 0.015 0 0 -0.346714 0.0353429 
127 1 -0.0304133 -0.0883788 -1.06586 0 -0.5 -8.26864 0.015 0 0 -0.346714 0.0353429 
56 1 -0.11556 0.143119 -1.06611 0 -0.5 -8.26893 0.015 0 0 -0.346714 0.0353429 
25 1 -0.104447 -0.100215 -1.0443 0 -0.5 -8.24303 0.025 0 0 -1.60516 0.163625 
42 1 -0.132916 -0.00720436 -1.01684 0 -0.5 -8.21027 0.025 0 0 -1.60516 0.163625 
123 1 -0.11925 0.0494922 -1.00987 0 -0.5 -8.20193 0.015 0 0 -0.346714 0.0353429 
64 1 -0.145219 0.113177 -0.983425 0 -0.5 -8.17024 0.015 0 0 -0.346714 0.0353429 
125 1 -0.0960051 0.105127 -0.979894 0 -0.5 -8.16603 0.015 0 0 -0.346714 0.0353429 
392 1 -0.0201822 -0.136623 -0.951702 0 -0.5 -8.13208 0.015 0 0 -0.346714 0.0353429 
361 1 -0.0655065 -0.108841 -0.956426 0 -0.5 -8.13777 0.015 0 0 -0.346714 0.0353429 
375 1 -0.132504 -0.0717871 -0.938548 0 -0.5 -8.11619 0.015 0 0 -0.346714 0.0353429 
391 1 -0.0665259 0.0901896 -0.953828 0 -0.5 -8.13463 0.015 0 0 -0.346714 0.0353429 
353 1 -0.0778865 -0.0554899 -0.902293 0 -0.5 -8.07224 0.015 0 0 -0.346714 0.0353429 
370 1 -0.0476722 0.162061 -0.902355 0 -0.5 -8.07234 0.015 0 0 -0.346714 0.0353429 
432 1 -0.110656 0.00402279 -0.879166 0 -0.5 -8.04409 0.015 0 0 -0.346714 0.0353429 
423 1 -0.035066 0.108352 -0.882294 0 -0.5 -8.04791 0.015 0 0 -0.346714 0.0353429 
449 1 -0.121601 -0.13103 -0.858435 0 -0.5 -8.01878 0.015 0 0 -0.346714 0.0353429 
348 1 -0.0525717 -0.125191 -0.82412 -0.0150753 -0.514502 -7.97463 0.025 0 0 -1.60516 0.163625 
409 1 -0.1116 -0.0237207 -0.812338 0 -0.5 -7.96217 0.015 0 0 -0.346714 0.0353429 
434 1 -0.110177 0.136235 -0.816393 0 -0.5 -7.96718 0.015 0 0 -0.346714 0.0353429 
304 1 -0.147639 0.102299 -0.767269 0 -0.5 -7.90645 0.025 0 0 -1.60516 0.163625 
327 1 -0.047146 0.139396 -0.718975 0 -0.5 -7.84632 0.025 0 0 -1.60516 0.163625 
414 1 -0.12165 0.0464124 -0.709737 0 -0.5 -7.83474 0.015 0 0 -0.346714 0.0353429 
416 1 -0.148865 0.0677519 -0.6883 0 -0.5 -7.80786 0.015 0 0 -0.346714 0.0353429 
368 1 -0.0426125 -0.0858969 -0.679406 0 -0.5 -7.79668 0.015 0 0 -0.346714 0.0353429 
422 1 -0.0856494 0.130628 -0.682515 0 -0.5 -7.8006 0.015 0 0 -0.346714 0.0353429 
307 1 -0.141488 -0.0916836 -0.631793 0 -0.5 -7.73654 0.025 0 0 -1.60516 0.163625 
328 1 -0.101567 -0.0606404 -0.651549 0 -0.5 -7.76156 0.025 0 0 -1.60516 0.163625 
342 1 -0.0942786 0.0900065 -0.649466 0 -0.5 -7.75891 0.025 0 0 -1.60516 0.163625 
441 1 -0.0895132 0.168957 -0.631104 0 -0.5 -7.73566 0.015 0 0 -0.346714 0.0353429 
440 1 -0.074831 -0.109367 -0.608787 0 -0.5 -7.70731 0.015 0 0 -0.346714 0.0353429 
352 1 -0.144025 0.127939 -0.590153 0 -0.5 -7.68357 0.015 0 0 -0.346714 0.0353429 
330 1 -0.125578 0.184028 -0.58256 0 -0.5 -7.67386 0.025 0 0 -1.60516 0.163625 
388 1 -0.0545692 -0.0453145 -0.560426 0 -0.5 -7.64551 0.015 0 0 -0.346714 0.0353429 
323 1 -0.131477 0.0238135 -0.563857 0 -0.5 -7.64992 0.025 0 0 -1.60516 0.163625 
406 1 -0.0920408 0.127666 -0.546066 0 -0.5 -7.62707 0.015 0 0 -0.346714 0.0353429 
418 1 -0.0554251 -0.0990597 -0.477074 0 -0.5 -7.53779 0.015 0 0 -0.346714 0.0353429 
318 1 -0.126425 0.101158 -0.48121 0 -0.5 -7.54319 0.025 0 0 -1.60516 0.163625 
331 1 -0.138106 -0.104169 -0.453963 0 -0.5 -7.50768 0.025 0 0 -1.60516 0.163625 
395 1 -0.110093 -0.0481279 -0.464938 0 -0.5 -7.522 0.015 0 0 -0.346714 0.0353429 
336 1 -0.025747 0.134523 -0.466452 0 -0.5 -7.52396 0.025 0 0 -1.60516 0.163625 
313 1 -0.0392615 -0.0603105 -0.430735 0 -0.5 -7.47727 0.025 0 0 -1.60516 0.163625 
374 1 -0.133879 0.161467 -0.426638 0 -0.5 -7.47187 0.015 0 0 -0.346714 0.0353429 
315 1 -0.0970947 0.00640648 -0.389552 0 -0.5 -7.42302 0.025 0 0 -1.60516 0.163625 
407 1 -0.0713596 0.134089 -0.387016 0 -0.5 -7.41968 0.015 0 0 -0.346714 0.0353429 
310 1 -0.0919271 0.171993 -0.39467 0 -0.5 -7.42979 0.025 0 0 -1.60516 0.163625 
445 1 -0.0938501 0.0766432 -0.362146 0 -0.5 -7.38672 0.015 0 0 -0.346714 0.0353429 
386 1 -0.118095 0.14511 -0.327911 0 -0.5 -7.3411 0.015 0 0 -0.346714 0.0353429 
377 1 -0.128279 -0.0762797 -0.320855 0 -0.5 -7.33169 0.015 0 0 -0.346714 0.0353429 
344 1 -0.147144 0.0774448 -0.292206 0 -0.5 -7.29323 0.025 0 0 -1.60516 0.163625 
401 1 -0.0913429 -0.0472196 -0.262162 0 -0.5 -7.25272 0.015 0 0 -0.346714 0.0353429 
439 1 -0.132801 0.0398967 -0.267536 0 -0.5 -7.25997 0.015 0 0 -0.346714 0.0353429 
302 1 -0.0567477 -0.0786837 -0.258613 0 -0.5 -7.24791 0.025 0 0 -1.60516 0.163625 
314 1 -0.136534 -0.0107638 -0.242547 0 -0.5 -7.22613 0.025 0 0 -1.60516 0.163625 
355 1 -0.0483468 -0.0312415 -0.204455 0 -0.5 -7.17424 0.015 0 0 -0.346714 0.0353429 
413 1 -0.0512121 0.138816 -0.215521 0 -0.5 -7.18934 0.015 0 0 -0.346714 0.0353429 
442 1 -0.149932 0.198171 -0.213136 0 -0.5 -7.18611 0.015 0 0 -0.346714 0.0353429 
431 1 -0.13363 -0.0503494 -0.191343 0 -0.5 -7.15628 0.015 0 0 -0.346714 0.0353429 
354 1 -0.0927402 0.137498 -0.194205 0 -0.5 -7.16021 0.015 0 0 -0.346714 0.0353429 
408 1 -0.087028 0.206439 -0.196854 0 -0.5 -7.16384 0.015 0 0 -0.346714 0.0353429 
382 1 -0.0982993 0.244387 -0.187282 0.026541 -0.439017 -7.19943 0.015 0 0 -0.346714 0.0353429 
446 1 -0.116317 0.106626 -0.152772 0 -0.5 -7.10321 0.015 0 0 -0.346714 0.0353429 
427 1 -0.0682705 0.361903 -0.165809 0.0988458 -0.172977 -7.23666 0.015 0 0 -0.346714 0.0353429 
411 1 -0.0485728 0.189056 -0.138506 0 -0.5 -7.08349 0.015 0 0 -0.346714 0.0353429 
350 1 -0.147794 -0.0406051 -0.0560306 0 -0.5 -6.96832 0.025 0 0 -1.60516 0.163625 
399 1 -0.074527 -0.0279519 -0.0771216 0 -0.5 -6.99795 0.015 0 0 -0.346714 0.0353429 
335 1 -0.126459 0.0204178 -0.0564353 0 -0.5 -6.96891 0.025 0 0 -1.60516 0.163625 
436 1 -0.0854574 0.0269506 -0.0783117 0 -0.5 -6.99962 0.015 0 0 -0.346714 0.0353429 
341 1 -0.148816 0.140228 -0.0734105 0 -0.5 -6.99275 0.025 0 0 -1.60516 0.163625 
389 1 -0.0230912 0.213676 -0.0713078 0 -0.5 -6.98981 0.015 0 0 -0.346714 0.0353429 
384 1 -0.210308 0.248529 -0.0576718 -0.135564 -0.440896 -6.98275 0.015 0 0 -0.346714 0.0353429 
324 1 -0.0498553 -0.0732968 -0.0382843 0 -0.5 -6.94331 0.025 0 0 -1.60516 0.163625 
437 1 -0.0723044 0.00323184 -0.0246227 0 -0.5 -6.92398 0.015 0 0 -0.346714 0.0353429 
385 1 -0.0696212 0.149365 -0.044189 0 -0.5 -6.95165 0.015 0 0 -0.346714 0.0353429 
367 1 -0.106717 -0.0161692 0.039263 0 -0.5 -6.83285 0.015 0 0 -0.346714 0.0353429 
394 1 -0.145405 0.178684 0.0185887 0 -0.5 -6.86247 0.015 0 0 -0.346714 0.0353429 
426 1 -0.0179373 0.208964 0.0385229 0 -0.5 -6.83393 0.015 0 0 -0.346714 0.0353429 
358 1 -0.127277 -0.0492076 0.0651662 0 -0.5 -6.79557 0.015 0 0 -0.346714 0.0353429 
326 1 -0.145564 0.080454 0.068292 0 -0.5 -6.79106 0.025 0 0 -1.60516 0.163625 
424 1 -0.153175 0.239786 0.0491788 -0.0730123 -0.390635 -6.8241 0.015 0 0 -0.346714 0.0353429 
319 1 -0.0687817 0.230025 0.0603314 0 -0.5 -6.80253 0.025 0 0 -1.60516 0.163625 
376 1 -0.0824761 -0.00422827 0.102191 0 -0.5 -6.74191 0.015 0 0 -0.346714 0.0353429 
433 1 -0.118613 -0.0633348 0.147069 0 -0.5 -6.67628 0.015 0 0 -0.346714 0.0353429 
420 1 -0.037203 -0.0551744 0.153619 0 -0.5 -6.66667 0.015 0 0 -0.346714 0.0353429 
402 1 -0.101682 -0.019713 0.159942 0 -0.5 -6.65735 0.015 0 0 -0.346714 0.0353429 
306 1 -0.116739 0.158034 0.157872 0 -0.5 -6.66039 0.025 0 0 -1.60516 0.163625 
412 1 -0.0937388 0.228584 0.16819 0 -0.5 -6.64518 0.015 0 0 -0.346714 0.0353429 
363 1 -0.0911777 0.0573271 0.201092 0 -0.5 -6.59643 0.015 0 0 -0.346714 0.0353429 
360 1 -0.116599 0.0812209 0.198199 0 -0.5 -6.60074 0.015 0 0 -0.346714 0.0353429 
397 1 -0.0557758 0.169618 0.207809 0 -0.5 -6.58642 0.015 0 0 -0.346714 0.0353429 
371 1 -0.0449321 0.208104 0.195218 0 -0.5 -6.60516 0.015 0 0 -0.346714 0.0353429 
381 1 -0.0827007 0.203114 0.249581 0 -0.5 -6.52393 0.015 0 0 -0.346714 0.0353429 
322 1 -0.131733 -0.0324363 0.255508 0 -0.5 -6.515 0.025 0 0 -1.60516 0.163625 
373 1 -0.136858 0.114184 0.271512 0 -0.5 -6.49087 0.015 0 0 -0.346714 0.0353429 
396 1 -0.0958984 0.13466 0.259161 0 -0.5 -6.50951 0.015 0 0 -0.346714 0.0353429 
369 1 -0.138958 0.172563 0.276433 0 -0.5 -6.48342 0.015 0 0 -0.346714 0.0353429 
383 1 -0.0262689 0.190803 0.278323 0 -0.5 -6.48057 0.015 0 0 -0.346714 0.0353429 
308 1 -0.0831127 -0.021213 0.317878 -0.0168546 -0.516386 -6.41937 0.025 0 0 -1.60516 0.163625 
438 1 -0.0987495 0.0663327 0.319527 0 -0.5 -6.41788 0.015 0 0 -0.346714 0.0353429 
356 1 -0.111476 0.109564 0.331888 0 -0.5 -6.39895 0.015 0 0 -0.346714 0.0353429 
340 1 -0.149237 0.237237 0.330997 0 -0.5 -6.40032 0.025 0 0 -1.60516 0.163625 
415 1 -0.127182 0.01813 0.355692 0 -0.5 -6.36236 0.015 0 0 -0.346714 0.0353429 
343 1 -0.140775 0.0768986 0.368214 0 -0.5 -6.34303 0.025 0 0 -1.60516 0.163625 
443 1 -0.0906469 0.164658 0.352119 0 -0.5 -6.36785 0.015 0 0 -0.346714 0.0353429 
349 1 -0.116564 0.196594 0.375245 0 -0.5 -6.33215 0.025 0 0 -1.60516 0.163625 
351 1 -0.0409452 0.195112 0.383466 0 -0.5 -6.31939 0.015 0 0 -0.346714 0.0353429 
390 1 -0.0988461 -0.0214101 0.422013 0 -0.5 -6.25926 0.015 0 0 -0.346714 0.0353429 
539 1 -0.0218643 0.477354 0.421046 -0.32393 0.0458257 -6.35422 0.015 0 0 -0.346714 0.0353429 
448 1 -0.0329565 -0.01243 0.461499 0 -0.5 -6.19706 0.015 0 0 -0.346714 0.0353429 
347 1 -0.0548177 0.02489 0.471776 0 -0.5 -6.18078 0.025 0 0 -1.60516 0.163625 
378 1 -0.121409 0.0731982 0.483811 0 -0.5 -6.16165 0.015 0 0 -0.346714 0.0353429 
312 1 -0.134707 0.132718 0.485794 0 -0.5 -6.15851 0.025 0 0 -1.60516 0.163625 
417 1 -0.0160313 0.232054 0.48578 0 -0.5 -6.15851 0.015 0 0 -0.346714 0.0353429 
346 1 -0.156248 0.325788 0.466805 -0.0151472 -0.325165 -6.21694 0.025 0 0 -1.60516 0.163625 
419 1 -0.111609 -0.0304812 0.516213 0 -0.5 -6.10985 0.015 0 0 -0.346714 0.0353429 
362 1 -0.0154426 0.0196087 0.511065 0 -0.5 -6.11809 0.015 0 0 -0.346714 0.0353429 
359 1 -0.107325 0.177399 0.499063 0 -0.5 -6.13732 0.015 0 0 -0.346714 0.0353429 
303 1 -0.0551599 0.196479 0.511811 0 -0.5 -6.11691 0.025 0 0 -1.60516 0.163625 
421 1 -0.0930175 0.0495422 0.541672 0 -0.5 -6.06884 0.015 0 0 -0.346714 0.0353429 
334 1 -0.103439 0.232448 0.530791 0 -0.5 -6.0864 0.025 0 0 -1.60516 0.163625 
325 1 -0.110811 0.0805606 0.607284 0.0497405 -0.588401 -5.96712 0.025 0 0 -1.60516 0.163625 
320 1 -0.0648735 0.00892865 0.634366 0 -0.5 -5.91708 0.025 0 0 -1.60516 0.163625 
365 1 -0.166082 0.135436 0.627834 -0.198006 -0.434998 -5.84985 0.015 0 0 -0.346714 0.0353429 
372 1 -0.0702168 0.192237 0.644308 0 -0.5 -5.9006 0.015 0 0 -0.346714 0.0353429 
447 1 -0.122284 0.273789 0.635976 0 -0.5 -5.91444 0.015 0 0 -0.346714 0.0353429 
309 1 -0.144284 0.00803091 0.66279 0 -0.5 -5.8698 0.025 0 0 -1.60516 0.163625 
387 1 -0.0901615 0.170452 0.669006 0 -0.5 -5.8594 0.015 0 0 -0.346714 0.0353429 
338 1 -0.0583644 0.261556 0.666299 0 -0.5 -5.86391 0.025 0 0 -1.60516 0.163625 
430 1 -0.123083 0.0553929 0.682029 0 -0.5 -5.83752 0.015 0 0 -0.346714 0.0353429 
403 1 -0.0833248 0.061397 0.687701 0 -0.5 -5.82801 0.015 0 0 -0.346714 0.0353429 
393 1 -0.015571 0.232279 0.708272 0 -0.5 -5.79328 0.015 0 0 -0.346714 0.0353429 
379 1 -0.0327871 0.0103292 0.71515 0 -0.5 -5.78161 0.015 0 0 -0.346714 0.0353429 
357 1 -0.0584785 0.0592145 0.767412 0 -0.5 -5.69224 0.015 0 0 -0.346714 0.0353429 
316 1 -0.0983119 -0.00588932 0.779236 0 -0.5 -5.67183 0.025 0 0 -1.60516 0.163625 
380 1 -0.127355 0.169976 0.793097 0 -0.5 -5.6478 0.015 0 0 -0.346714 0.0353429 
301 1 -0.0839024 0.229807 0.781915 0.012148 -0.512208 -5.66721 0.025 0 0 -1.60516 0.163625 
428 1 -0.0387226 0.244002 0.791135 0 -0.5 -5.65123 0.015 0 0 -0.346714 0.0353429 
329 1 -0.128617 0.274913 0.774762 -0.0138001 -0.485947 -5.67962 0.025 0 0 -1.60516 0.163625 
450 1 -0.0322061 0.288898 0.793493 0 -0.5 -5.64711 0.015 0 0 -0.346714 0.0353429 
364 1 -0.0453235 0.0248065 0.802348 0 -0.5 -5.63171 0.015 0 0 -0.346714 0.0353429 
321 1 -0.126579 0.0652512 0.804259 0 -0.5 -5.62838 0.025 0 0 -1.60516 0.163625 
410 1 -0.145474 0.114536 0.812924 0 -0.5 -5.61327 0.015 0 0 -0.346714 0.0353429 
333 1 -0.0978849 0.127337 0.806116 0 -0.5 -5.62514 0.025 0 0 -1.60516 0.163625 
337 1 -0.142368 0.210838 0.833966 0 -0.5 -5.57638 0.025 0 0 -1.60516 0.163625 
332 1 -0.0814262 0.056266 0.909207 0 -0.5 -5.44238 0.025 0 0 -1.60516 0.163625 
400 1 -0.135353 0.099905 0.916345 0 -0.5 -5.42953 0.015 0 0 -0.346714 0.0353429 
544 1 -0.112227 0.429128 0.919906 -0.39021 -0.130746 -5.47549 0.015 0 0 -0.346714 0.0353429 
425 1 -0.074083 0.00278677 0.937011 0 -0.5 -5.39205 0.015 0 0 -0.346714 0.0353429 
317 1 -0.129905 0.142055 0.950993 0 -0.5 -5.36655 0.025 0 0 -1.60516 0.163625 
366 1 -0.144217 0.219022 0.946316 0 -0.5 -5.37508 0.015 0 0 -0.346714 0.0353429 
339 1 -0.0802774 0.26466 0.93598 0 -0.5 -5.39392 0.025 0 0 -1.60516 0.163625 
305 1 -0.0452536 0.301472 0.937006 0 -0.5 -5.39205 0.025 0 0 -1.60516 0.163625 
404 1 -0.119976 0.0238444 0.979672 0 -0.5 -5.31387 0.015 0 0 -0.346714 0.0353429 
311 1 -0.0354402 0.0183675 0.957739 0 -0.5 -5.35419 0.025 0 0 -1.60516 0.163625 
345 1 -0.128178 0.0666745 0.972958 0 -0.5 -5.32623 0.025 0 0 -1.60516 0.163625 
435 1 -0.0960728 0.103976 0.980529 0 -0.5 -5.3123 0.015 0 0 -0.346714 0.0353429 
405 1 -0.038992 0.25339 0.957416 0 -0.5 -5.35477 0.015 0 0 -0.346714 0.0353429 
444 1 -0.0159467 0.299826 1.01191 0 -0.5 -5.25403 0.015 0 0 -0.346714 0.0353429 
675 1 -0.139952 0.295312 1.01765 -0.0349785 -0.349711 -5.30912 0.015 0 0 -0.346714 0.0353429 
714 1 -0.0240605 0.068326 1.05062 0 -0.5 -5.18124 0.015 0 0 -0.346714 0.0353429 
676 1 -0.132839 0.0958674 1.06988 0 -0.5 -5.14464 0.015 0 0 -0.346714 0.0353429 
690 1 -0.0634806 0.266565 1.05806 0 -0.5 -5.16711 0.015 0 0 -0.346714 0.0353429 
634 1 -0.102181 0.288021 1.06061 0 -0.5 -5.1623 0.025 0 0 -1.60516 0.163625 
652 1 -0.0683105 0.100338 1.08782 0 -0.5 -5.11031 0.015 0 0 -0.346714 0.0353429 
629 1 -0.113195 0.147381 1.1021 0 -0.5 -5.08284 0.025 0 0 -1.60516 0.163625 
669 1 -0.0318411 0.277893 1.09202 0 -0.5 -5.10227 0.015 0 0 -0.346714 0.0353429 
608 1 -0.0938106 0.0367933 1.13648 0 -0.5 -5.01604 0.025 0 0 -1.60516 0.163625 
682 1 -0.0469368 0.0327812 1.14624 0 -0.5 -4.99691 0.015 0 0 -0.346714 0.0353429 
657 1 -0.0480729 0.0709275 1.15707 0 -0.5 -4.97562 0.015 0 0 -0.346714 0.0353429 
606 1 -0.122287 0.221327 1.14126 0.00210743 -0.508228 -5.00317 0.025 0 0 -1.60516 0.163625 
708 1 -0.0786991 0.261401 1.13873 0 -0.5 -5.01162 0.015 0 0 -0.346714 0.0353429 
660 1 -0.0183143 0.274377 1.16118 0 -0.5 -4.96748 0.015 0 0 -0.346714 0.0353429 
701 1 -0.0870486 0.319674 1.14278 0 -0.5 -5.00367 0.015 0 0 -0.346714 0.0353429 
735 1 -0.0832421 0.114669 1.17555 0 -0.5 -4.93903 0.015 0 0 -0.346714 0.0353429 
618 1 -0.13283 0.0811641 1.22556 0 -0.5 -4.83867 0.025 0 0 -1.60516 0.163625 
709 1 -0.101732 0.163531 1.21572 0 -0.5 -4.85858 0.015 0 0 -0.346714 0.0353429 
707 1 -0.0900659 0.0639886 1.24397 0 -0.5 -4.8012 0.015 0 0 -0.346714 0.0353429 
649 1 -0.129761 0.197177 1.24533 0 -0.5 -4.79845 0.025 0 0 -1.60516 0.163625 
750 1 -0.0862874 0.228179 1.22793 0 -0.5 -4.83386 0.015 0 0 -0.346714 0.0353429 
640 1 -0.0489559 0.0835172 1.27256 0 -0.5 -4.74243 0.025 0 0 -1.60516 0.163625 
680 1 -0.0791761 0.118881 1.25996 0 -0.5 -4.76843 0.015 0 0 -0.346714 0.0353429 
616 1 -0.140255 0.289264 1.27341 0 -0.5 -4.74067 0.025 0 0 -1.60516 0.163625 
712 1 -0.0372677 0.33455 1.28562 0 -0.5 -4.71536 0.015 0 0 -0.346714 0.0353429 
677 1 -0.113879 0.0543032 1.30716 0 -0.5 -4.67033 0.015 0 0 -0.346714 0.0353429 
725 1 -0.0732043 0.291614 1.2961 0 -0.5 -4.69348 0.015 0 0 -0.346714 0.0353429 
744 1 -0.107021 0.240725 1.32576 0 -0.5 -4.63109 0.015 0 0 -0.346714 0.0353429 
736 1 -0.0864872 0.147793 1.35908 0 -0.5 -4.55997 0.015 0 0 -0.346714 0.0353429 
625 1 -0.0568605 0.230576 1.37527 0.250947 -0.205125 -4.63325 0.025 0 0 -1.60516 0.163625 
685 1 -0.0969629 0.287703 1.34887 0 -0.5 -4.58184 0.015 0 0 -0.346714 0.0353429 
610 1 -0.108705 0.087549 1.40329 0 -0.5 -4.46383 0.025 0 0 -1.60516 0.163625 
692 1 -0.0389882 0.10907 1.38796 0 -0.5 -4.49738 0.015 0 0 -0.346714 0.0353429 
722 1 -0.124711 0.286428 1.38805 0 -0.5 -4.49718 0.015 0 0 -0.346714 0.0353429 
683 1 -0.0829948 0.288592 1.40878 0 -0.5 -4.45176 0.015 0 0 -0.346714 0.0353429 
620 1 -0.0294016 0.319755 1.39954 0 -0.5 -4.47207 0.025 0 0 -1.60516 0.163625 
674 1 -0.11657 0.343544 1.38201 0 -0.5 -4.51033 0.015 0 0 -0.346714 0.0353429 
699 1 -0.0856858 0.34542 1.37926 0 -0.5 -4.51631 0.015 0 0 -0.346714 0.0353429 
748 1 -0.0192599 0.0768309 1.42412 0 -0.5 -4.41782 0.015 0 0 -0.346714 0.0353429 
636 1 -0.149776 0.262476 1.43964 0 -0.5 -4.38319 0.025 0 0 -1.60516 0.163625 
732 1 -0.0691875 0.325647 1.4157 0 -0.5 -4.43646 0.015 0 0 -0.346714 0.0353429 
678 1 -0.0973357 0.217233 1.45174 0 -0.5 -4.35602 0.015 0 0 -0.346714 0.0353429 
696 1 -0.058387 0.291843 1.46689 0 -0.5 -4.32178 0.015 0 0 -0.346714 0.0353429 
705 1 -0.0946775 0.0652794 1.47327 0 -0.5 -4.30726 0.015 0 0 -0.346714 0.0353429 
641 1 -0.147839 0.128359 1.48617 -0.0165282 -0.51578 -4.27147 0.025 0 0 -1.60516 0.163625 
694 1 -0.138308 0.229231 1.49882 0 -0.5 -4.2487 0.015 0 0 -0.346714 0.0353429 
733 1 -0.0833844 0.262272 1.49993 0 -0.5 -4.24615 0.015 0 0 -0.346714 0.0353429 
698 1 -0.111785 0.305616 1.48603 0 -0.5 -4.27813 0.015 0 0 -0.346714 0.0353429 
648 1 -0.130879 0.346847 1.4766 0 -0.5 -4.29971 0.025 0 0 -1.60516 0.163625 
644 1 -0.140738 0.075303 1.5284 0 -0.5 -4.17983 0.025 0 0 -1.60516 0.163625 
730 1 -0.0250727 0.0772457 1.50984 0 -0.5 -4.22319 0.015 0 0 -0.346714 0.0353429 
637 1 -0.0618774 0.0968169 1.51911 0 -0.5 -4.20161 0.025 0 0 -1.60516 0.163625 
729 1 -0.0894542 0.127908 1.52191 0 -0.5 -4.19504 0.015 0 0 -0.346714 0.0353429 
745 1 -0.0632592 0.236997 1.52796 0.249023 -0.340208 -4.25798 0.015 0 0 -0.346714 0.0353429 
639 1 -0.0513047 0.461158 1.51192 0.113569 0.037071 -4.26964 0.025 0 0 -1.60516 0.163625 
724 1 -0.0903421 0.165009 1.53995 0 -0.5 -4.15266 0.015 0 0 -0.346714 0.0353429 
684 1 -0.0877228 0.110489 1.58552 0 -0.5 -4.04357 0.015 0 0 -0.346714 0.0353429 
628 1 -0.0941223 0.268727 1.56278 -0.035052 -0.643145 -4.08351 0.025 0 0 -1.60516 0.163625 
679 1 -0.13837 0.0801581 1.61477 0 -0.5 -3.97196 0.015 0 0 -0.346714 0.0353429 
706 1 -0.129002 0.129926 1.62239 0 -0.5 -3.95312 0.015 0 0 -0.346714 0.0353429 