ITEM: TIMESTEP
40000
ITEM: NUMBER OF ATOMS
600
ITEM: BOX BOUNDS mm mm mm
-1 1
-1 1
-0.05 2.85
ITEM: ATOMS id type x y z vx vy vz radius fx fy fz mass 
68 1 -0.0997213 0.0452714 0.68303 0 -0.5 -5.83586 0.015 0 0 -0.346714 0.0353429 
137 1 -0.0888909 0.0933219 0.697166 -0.00924354 -0.479856 -5.813 0.015 0 0 -0.346714 0.0353429 
33 1 -0.129286 0.236605 0.706695 0 -0.5 -5.79593 0.025 0 0 -1.60516 0.163625 
45 1 -0.0943793 -0.00376243 0.713123 0 -0.5 -5.78504 0.025 0 0 -1.60516 0.163625 
122 1 -0.069767 0.0521613 0.713607 0.00811842 -0.517403 -5.78342 0.015 0 0 -0.346714 0.0353429 
43 1 -0.116198 0.147785 0.735384 0 -0.5 -5.74717 0.025 0 0 -1.60516 0.163625 
111 1 -0.0487783 0.2801 0.736014 0 -0.5 -5.7461 0.015 0 0 -0.346714 0.0353429 
119 1 -0.0370509 -0.0148114 0.744175 0 -0.5 -5.73217 0.015 0 0 -0.346714 0.0353429 
75 1 -0.0493142 0.0356721 0.762395 0 -0.5 -5.70087 0.015 0 0 -0.346714 0.0353429 
89 1 -0.129145 0.0643079 0.769124 0 -0.5 -5.6893 0.015 0 0 -0.346714 0.0353429 
78 1 -0.0422369 0.243955 0.752351 0 -0.5 -5.71814 0.015 0 0 -0.346714 0.0353429 
59 1 -0.0865612 0.192868 0.783995 0 -0.5 -5.66359 0.015 0 0 -0.346714 0.0353429 
92 1 -0.131017 0.287327 0.799713 0 -0.5 -5.63632 0.015 0 0 -0.346714 0.0353429 
98 1 -0.147127 0.136442 0.857623 0 -0.5 -5.53459 0.015 0 0 -0.346714 0.0353429 
26 1 -0.0627629 0.118505 0.844064 0.14857 -0.341553 -5.60537 0.025 0 0 -1.60516 0.163625 
151 1 -0.0686397 0.218527 0.857025 0 -0.5 -5.53567 0.015 0 0 -0.346714 0.0353429 
8 1 -0.104188 0.00346298 0.875055 0 -0.5 -5.50359 0.025 0 0 -1.60516 0.163625 
3 1 -0.141317 0.201388 0.883043 0 -0.5 -5.48937 0.025 0 0 -1.60516 0.163625 
100 1 -0.0681017 0.071921 0.916564 0 -0.5 -5.42913 0.015 0 0 -0.346714 0.0353429 
140 1 -0.125739 0.113556 0.911614 0 -0.5 -5.43806 0.015 0 0 -0.346714 0.0353429 
72 1 -0.105673 0.238796 0.89678 0 -0.5 -5.46474 0.015 0 0 -0.346714 0.0353429 
40 1 -0.104474 0.290198 0.91275 0 -0.5 -5.436 0.025 0 0 -1.60516 0.163625 
118 1 -0.0372647 0.273681 0.921767 0 -0.5 -5.41972 0.015 0 0 -0.346714 0.0353429 
117 1 -0.0596227 0.0150208 0.937007 0 -0.5 -5.39205 0.015 0 0 -0.346714 0.0353429 
51 1 -0.157691 0.0300192 0.961673 -0.0265052 -0.519812 -5.34015 0.025 0 0 -1.60516 0.163625 
148 1 -0.163706 0.146916 0.96171 -0.171679 -0.397353 -5.44139 0.015 0 0 -0.346714 0.0353429 
60 1 -0.0770515 0.0239276 1.0142 0 -0.5 -5.24971 0.015 0 0 -0.346714 0.0353429 
11 1 -0.100173 0.18218 1.00977 0.022917 -0.457889 -5.27887 0.025 0 0 -1.60516 0.163625 
50 1 -0.130982 0.248355 1.01563 0 -0.5 -5.24706 0.025 0 0 -1.60516 0.163625 
90 1 -0.146535 0.291667 0.994723 0 -0.5 -5.28601 0.015 0 0 -0.346714 0.0353429 
74 1 -0.0790012 0.235893 1.04762 0 -0.5 -5.18693 0.015 0 0 -0.346714 0.0353429 
44 1 -0.125916 0.0155965 1.07182 0 -0.5 -5.14092 0.025 0 0 -1.60516 0.163625 
105 1 -0.183018 0.171463 1.05407 -0.321192 -0.368687 -5.16258 0.015 0 0 -0.346714 0.0353429 
76 1 -0.0202065 0.26407 1.06215 0 -0.5 -5.15936 0.015 0 0 -0.346714 0.0353429 
36 1 -0.103411 0.0623125 1.09139 0 -0.5 -5.10344 0.025 0 0 -1.60516 0.163625 
54 1 -0.155052 0.0981655 1.10991 -0.0956439 -0.529683 -5.05214 0.015 0 0 -0.346714 0.0353429 
29 1 -0.0788351 0.278182 1.08592 0 -0.5 -5.11394 0.025 0 0 -1.60516 0.163625 
114 1 -0.072014 0.0924452 1.12363 -0.00040144 -0.499666 -5.04123 0.015 0 0 -0.346714 0.0353429 
146 1 -0.109965 0.0289163 1.1712 0 -0.5 -4.94766 0.015 0 0 -0.346714 0.0353429 
73 1 -0.0639552 0.0417667 1.15099 0 -0.5 -4.98759 0.015 0 0 -0.346714 0.0353429 
2 1 -0.110349 0.189071 1.15616 0 -0.5 -4.97738 0.025 0 0 -1.60516 0.163625 
113 1 -0.118506 0.313198 1.14523 0 -0.5 -4.99887 0.015 0 0 -0.346714 0.0353429 
12 1 -0.0363281 0.298336 1.16983 0 -0.5 -4.95041 0.025 0 0 -1.60516 0.163625 
57 1 -0.120673 0.145061 1.19561 0 -0.5 -4.899 0.015 0 0 -0.346714 0.0353429 
88 1 -0.0666498 0.255919 1.18576 0 -0.5 -4.91872 0.015 0 0 -0.346714 0.0353429 
99 1 -0.146283 0.0935171 1.20711 0 -0.5 -4.87595 0.015 0 0 -0.346714 0.0353429 
10 1 -0.077721 0.24532 1.22742 0.0635655 -0.375939 -4.93264 0.025 0 0 -1.60516 0.163625 
66 1 -0.0281121 0.0808228 1.24575 0 -0.5 -4.79757 0.015 0 0 -0.346714 0.0353429 
19 1 -0.0715757 0.103252 1.24214 0 -0.5 -4.80492 0.025 0 0 -1.60516 0.163625 
83 1 -0.108229 0.123146 1.23874 0 -0.5 -4.81189 0.015 0 0 -0.346714 0.0353429 
34 1 -0.138562 0.262511 1.23358 0 -0.5 -4.82239 0.025 0 0 -1.60516 0.163625 
81 1 -0.0496044 0.265426 1.25025 0.07636 -0.438847 -4.74508 0.015 0 0 -0.346714 0.0353429 
71 1 -0.145263 0.306198 1.25328 0 -0.5 -4.78217 0.015 0 0 -0.346714 0.0353429 
67 1 -0.0183057 0.0363887 1.26932 0 -0.5 -4.74911 0.015 0 0 -0.346714 0.0353429 
24 1 -0.138394 0.0634519 1.28084 0 -0.5 -4.72527 0.025 0 0 -1.60516 0.163625 
133 1 -0.127566 0.179944 1.28896 0 -0.5 -4.70839 0.015 0 0 -0.346714 0.0353429 
95 1 -0.10482 0.267312 1.2922 0 -0.5 -4.70162 0.015 0 0 -0.346714 0.0353429 
39 1 -0.0696793 0.31701 1.2923 0 -0.5 -4.70143 0.025 0 0 -1.60516 0.163625 
103 1 -0.135939 0.107722 1.31503 0 -0.5 -4.65375 0.015 0 0 -0.346714 0.0353429 
143 1 -0.11631 0.325682 1.32307 0 -0.5 -4.63678 0.015 0 0 -0.346714 0.0353429 
28 1 -0.0685748 0.0660701 1.34939 0 -0.5 -4.58077 0.025 0 0 -1.60516 0.163625 
70 1 -0.107191 0.0899244 1.3263 0 -0.5 -4.62991 0.015 0 0 -0.346714 0.0353429 
97 1 -0.0338223 0.093144 1.34112 0 -0.5 -4.59842 0.015 0 0 -0.346714 0.0353429 
115 1 -0.076478 0.128431 1.3415 0 -0.5 -4.59764 0.015 0 0 -0.346714 0.0353429 
85 1 -0.13789 0.250015 1.3437 0 -0.5 -4.59293 0.015 0 0 -0.346714 0.0353429 
96 1 -0.131998 0.0930814 1.38243 0 -0.5 -4.50945 0.015 0 0 -0.346714 0.0353429 
126 1 -0.118751 0.180315 1.36665 -0.0288748 -0.539424 -4.51627 0.015 0 0 -0.346714 0.0353429 
134 1 -0.137197 0.290367 1.35838 0 -0.5 -4.56144 0.015 0 0 -0.346714 0.0353429 
77 1 -0.0297287 0.318749 1.3648 0 -0.5 -4.54761 0.015 0 0 -0.346714 0.0353429 
120 1 -0.148569 0.339261 1.36663 0 -0.5 -4.54368 0.015 0 0 -0.346714 0.0353429 
38 1 -0.121616 0.134188 1.40079 0 -0.5 -4.46932 0.025 0 0 -1.60516 0.163625 
130 1 -0.0642546 0.128441 1.43478 0 -0.5 -4.39408 0.015 0 0 -0.346714 0.0353429 
23 1 -0.134189 0.270519 1.43399 0 -0.5 -4.39585 0.025 0 0 -1.60516 0.163625 
31 1 -0.140814 0.0708773 1.46716 0 -0.5 -4.32119 0.025 0 0 -1.60516 0.163625 
150 1 -0.100106 0.105207 1.4545 0 -0.5 -4.34984 0.015 0 0 -0.346714 0.0353429 
18 1 -0.106015 0.335686 1.45558 0 -0.5 -4.34739 0.025 0 0 -1.60516 0.163625 
4 1 -0.0330873 0.348857 1.45489 0 -0.5 -4.34896 0.025 0 0 -1.60516 0.163625 
110 1 -0.0868918 0.0604165 1.48988 0 -0.5 -4.2693 0.015 0 0 -0.346714 0.0353429 
93 1 -0.0244706 0.0721578 1.50133 0 -0.5 -4.24291 0.015 0 0 -0.346714 0.0353429 
17 1 -0.134634 0.186027 1.50709 0 -0.5 -4.22957 0.025 0 0 -1.60516 0.163625 
136 1 -0.0832352 0.279008 1.5043 0 -0.5 -4.23604 0.015 0 0 -0.346714 0.0353429 
109 1 -0.0676248 0.35408 1.51004 0 -0.5 -4.2227 0.015 0 0 -0.346714 0.0353429 
106 1 -0.123485 0.395293 1.4936 -0.0998962 -0.230395 -4.42993 0.015 0 0 -0.346714 0.0353429 
30 1 -0.0481876 0.306857 1.51094 0 -0.5 -4.22064 0.025 0 0 -1.60516 0.163625 
108 1 -0.089121 0.0928235 1.54542 0 -0.5 -4.13971 0.015 0 0 -0.346714 0.0353429 
69 1 -0.020474 0.113083 1.56374 0 -0.5 -4.09605 0.015 0 0 -0.346714 0.0353429 
35 1 -0.146938 0.286792 1.56918 0 -0.5 -4.08301 0.025 0 0 -1.60516 0.163625 
1 1 -0.146354 0.441296 1.56454 -0.021394 -0.0706631 -4.29489 0.025 0 0 -1.60516 0.163625 
14 1 -0.0571303 0.0849755 1.60301 0 -0.5 -4.0009 0.025 0 0 -1.60516 0.163625 
102 1 -0.11709 0.0928995 1.59432 0 -0.5 -4.02218 0.015 0 0 -0.346714 0.0353429 
139 1 -0.104092 0.150572 1.59419 0 -0.5 -4.02248 0.015 0 0 -0.346714 0.0353429 
144 1 -0.0691235 0.153474 1.59343 0 -0.5 -4.02434 0.015 0 0 -0.346714 0.0353429 
22 1 -0.102489 0.218306 1.59008 0 -0.5 -4.03248 0.025 0 0 -1.60516 0.163625 
141 1 -0.136875 0.166264 1.61485 0 -0.5 -3.97176 0.015 0 0 -0.346714 0.0353429 
149 1 -0.0747646 0.199056 1.62391 0.199959 -0.45766 -4.22965 0.015 0 0 -0.346714 0.0353429 
55 1 -0.0959986 0.324397 1.6068 -7.52477e-06 -0.49998 -3.99161 0.015 0 0 -0.346714 0.0353429 
21 1 -0.0470047 0.3695 1.62648 0 -0.5 -3.94292 0.025 0 0 -1.60516 0.163625 
107 1 -0.141609 0.0819477 1.65911 0 -0.5 -3.86091 0.015 0 0 -0.346714 0.0353429 
94 1 -0.18058 0.251099 1.64908 -0.356499 -0.190573 -3.97915 0.015 0 0 -0.346714 0.0353429 
87 1 -0.113676 0.287588 1.63824 0 -0.5 -3.91359 0.015 0 0 -0.346714 0.0353429 
112 1 -0.073338 0.165279 1.67962 0 -0.5 -3.80842 0.015 0 0 -0.346714 0.0353429 
84 1 -0.116406 0.245786 1.67692 0 -0.5 -3.81539 0.015 0 0 -0.346714 0.0353429 
147 1 -0.100309 0.357431 1.67156 0 -0.5 -3.82912 0.015 0 0 -0.346714 0.0353429 
142 1 -0.0724928 0.106748 1.69651 0 -0.5 -3.76467 0.015 0 0 -0.346714 0.0353429 
6 1 -0.0922063 0.140241 1.71545 0.101461 -0.428163 -3.72385 0.025 0 0 -1.60516 0.163625 
80 1 -0.102893 0.292893 1.71046 0 -0.5 -3.72818 0.015 0 0 -0.346714 0.0353429 
145 1 -0.0934491 0.322113 1.69817 0 -0.5 -3.76036 0.015 0 0 -0.346714 0.0353429 
47 1 -0.140465 0.32945 1.69659 0 -0.5 -3.76448 0.025 0 0 -1.60516 0.163625 
32 1 -0.160002 0.0936133 1.73405 -0.0613285 -0.540948 -3.66091 0.025 0 0 -1.60516 0.163625 
138 1 -0.0317395 0.109316 1.74741 0 -0.5 -3.62959 0.015 0 0 -0.346714 0.0353429 
135 1 -0.140472 0.174893 1.73282 0 -0.5 -3.66883 0.015 0 0 -0.346714 0.0353429 
15 1 -0.0856789 0.237125 1.73302 0.0430154 -0.390763 -3.61665 0.025 0 0 -1.60516 0.163625 
128 1 -0.145291 0.259677 1.74869 0 -0.5 -3.62615 0.015 0 0 -0.346714 0.0353429 
62 1 -0.0849655 0.382406 1.73261 0 -0.5 -3.66942 0.015 0 0 -0.346714 0.0353429 
121 1 -0.0679495 0.364078 1.76402 0 -0.5 -3.58446 0.015 0 0 -0.346714 0.0353429 
280 1 -0.0102632 0.448236 1.76352 -0.323138 -0.0374805 -3.7315 0.015 0 0 -0.346714 0.0353429 
61 1 -0.0231802 0.102935 1.81151 0 -0.5 -3.45203 0.015 0 0 -0.346714 0.0353429 
52 1 -0.100497 0.11849 1.8177 0 -0.5 -3.43437 0.015 0 0 -0.346714 0.0353429 
129 1 -0.0553418 0.133199 1.79195 0 -0.5 -3.50716 0.015 0 0 -0.346714 0.0353429 
79 1 -0.0179342 0.136984 1.81157 0 -0.5 -3.45183 0.015 0 0 -0.346714 0.0353429 
13 1 -0.146779 0.215821 1.803 0 -0.5 -3.47616 0.025 0 0 -1.60516 0.163625 
101 1 -0.102489 0.225824 1.79992 0 -0.5 -3.48479 0.015 0 0 -0.346714 0.0353429 
91 1 -0.124131 0.322132 1.81192 0 -0.5 -3.45085 0.015 0 0 -0.346714 0.0353429 
37 1 -0.0716655 0.328665 1.7995 0 -0.5 -3.48597 0.025 0 0 -1.60516 0.163625 
46 1 -0.032303 0.390569 1.80344 0 -0.5 -3.47488 0.025 0 0 -1.60516 0.163625 
5 1 -0.137704 0.146412 1.82572 0 -0.5 -3.41141 0.025 0 0 -1.60516 0.163625 
7 1 -0.0712578 0.185449 1.82821 0 -0.5 -3.40425 0.025 0 0 -1.60516 0.163625 
20 1 -0.124339 0.273888 1.82323 0 -0.5 -3.41858 0.025 0 0 -1.60516 0.163625 
65 1 -0.147981 0.123097 1.87708 0 -0.5 -3.26034 0.015 0 0 -0.346714 0.0353429 
58 1 -0.0969698 0.219891 1.86703 0 -0.5 -3.29046 0.015 0 0 -0.346714 0.0353429 
86 1 -0.142939 0.315059 1.85426 0 -0.5 -3.32832 0.015 0 0 -0.346714 0.0353429 
124 1 -0.136447 0.345377 1.86694 0 -0.5 -3.29075 0.015 0 0 -0.346714 0.0353429 
9 1 -0.0320364 0.349159 1.85679 0 -0.5 -3.32087 0.025 0 0 -1.60516 0.163625 
41 1 -0.107908 0.400758 1.8752 0 -0.5 -3.26603 0.025 0 0 -1.60516 0.163625 
104 1 -0.138444 0.287217 1.90416 0 -0.5 -3.17784 0.015 0 0 -0.346714 0.0353429 
131 1 -0.025873 0.38804 1.89727 0 -0.5 -3.19903 0.015 0 0 -0.346714 0.0353429 
49 1 -0.0613084 0.13371 1.93159 0 -0.5 -3.092 0.025 0 0 -1.60516 0.163625 
132 1 -0.0234712 0.156168 1.91759 0 -0.5 -3.13615 0.015 0 0 -0.346714 0.0353429 
48 1 -0.144727 0.213852 1.91701 0 -0.5 -3.13791 0.025 0 0 -1.60516 0.163625 
53 1 -0.106432 0.25834 1.91853 0 -0.5 -3.1332 0.015 0 0 -0.346714 0.0353429 
16 1 -0.129915 0.357079 1.93379 0 -0.5 -3.08504 0.025 0 0 -1.60516 0.163625 
82 1 -0.0851821 0.347627 1.93825 0 -0.5 -3.07081 0.015 0 0 -0.346714 0.0353429 
27 1 -0.0637137 0.383885 1.93424 0 -0.5 -3.08356 0.025 0 0 -1.60516 0.163625 
63 1 -0.147823 0.413713 1.94479 0 -0.5 -3.04982 0.015 0 0 -0.346714 0.0353429 
25 1 -0.104447 0.167785 1.96477 0 -0.5 -2.98487 0.025 0 0 -1.60516 0.163625 
127 1 -0.0304133 0.179621 1.95695 0 -0.5 -3.01048 0.015 0 0 -0.346714 0.0353429 
42 1 -0.132916 0.260796 1.97468 0 -0.5 -2.95211 0.025 0 0 -1.60516 0.163625 
56 1 -0.11556 0.411119 1.95685 0 -0.5 -3.01077 0.015 0 0 -0.346714 0.0353429 
392 1 -0.0201822 0.131377 1.99791 0 -0.5 -2.87392 0.015 0 0 -0.346714 0.0353429 
361 1 -0.0655065 0.159159 1.99623 0 -0.5 -2.87961 0.015 0 0 -0.346714 0.0353429 
375 1 -0.132504 0.196213 2.00254 0 -0.5 -2.85803 0.015 0 0 -0.346714 0.0353429 
123 1 -0.11925 0.317492 1.97718 0 -0.5 -2.94377 0.015 0 0 -0.346714 0.0353429 
391 1 -0.0665259 0.35819 1.99715 0 -0.5 -2.87647 0.015 0 0 -0.346714 0.0353429 
64 1 -0.145219 0.381177 1.98664 0 -0.5 -2.91208 0.015 0 0 -0.346714 0.0353429 
125 1 -0.0960051 0.373127 1.98791 0 -0.5 -2.90787 0.015 0 0 -0.346714 0.0353429 
449 1 -0.121601 0.13697 2.03044 0 -0.5 -2.76062 0.015 0 0 -0.346714 0.0353429 
429 1 -0.00421829 0.191893 2.01062 0.187199 -0.301038 -2.91213 0.015 0 0 -0.346714 0.0353429 
353 1 -0.0778865 0.21251 2.01524 0 -0.5 -2.81408 0.015 0 0 -0.346714 0.0353429 
432 1 -0.110656 0.272023 2.02328 0 -0.5 -2.78593 0.015 0 0 -0.346714 0.0353429 
423 1 -0.035066 0.376352 2.0222 0 -0.5 -2.78975 0.015 0 0 -0.346714 0.0353429 
370 1 -0.0476722 0.430061 2.01523 0 -0.5 -2.81418 0.015 0 0 -0.346714 0.0353429 
348 1 -0.0444914 0.150582 2.04109 -0.0150753 -0.514502 -2.71647 0.025 0 0 -1.60516 0.163625 
409 1 -0.1116 0.244279 2.0462 0 -0.5 -2.70401 0.015 0 0 -0.346714 0.0353429 
304 1 -0.147639 0.370299 2.0614 0 -0.5 -2.64829 0.025 0 0 -1.60516 0.163625 
434 1 -0.110177 0.404235 2.04483 0 -0.5 -2.70902 0.015 0 0 -0.346714 0.0353429 
368 1 -0.0426125 0.182103 2.09043 0 -0.5 -2.53852 0.015 0 0 -0.346714 0.0353429 
328 1 -0.101567 0.20736 2.09946 0 -0.5 -2.5034 0.025 0 0 -1.60516 0.163625 
414 1 -0.12165 0.314412 2.0805 0 -0.5 -2.57658 0.015 0 0 -0.346714 0.0353429 
416 1 -0.148865 0.335752 2.08753 0 -0.5 -2.5497 0.015 0 0 -0.346714 0.0353429 
342 1 -0.0942786 0.358007 2.10012 0 -0.5 -2.50075 0.025 0 0 -1.60516 0.163625 
422 1 -0.0856494 0.398628 2.08942 0 -0.5 -2.54244 0.015 0 0 -0.346714 0.0353429 
327 1 -0.047146 0.407396 2.07746 0 -0.5 -2.58816 0.025 0 0 -1.60516 0.163625 
307 1 -0.141488 0.176316 2.10581 0 -0.5 -2.47838 0.025 0 0 -1.60516 0.163625 
440 1 -0.074831 0.158633 2.11314 0 -0.5 -2.44915 0.015 0 0 -0.346714 0.0353429 
388 1 -0.0545692 0.222686 2.12838 0 -0.5 -2.38735 0.015 0 0 -0.346714 0.0353429 
323 1 -0.131477 0.291813 2.12731 0 -0.5 -2.39176 0.025 0 0 -1.60516 0.163625 
352 1 -0.144025 0.395939 2.11905 0 -0.5 -2.42541 0.015 0 0 -0.346714 0.0353429 
441 1 -0.0895132 0.436957 2.10602 0 -0.5 -2.4775 0.015 0 0 -0.346714 0.0353429 
330 1 -0.125578 0.452028 2.12144 0 -0.5 -2.4157 0.025 0 0 -1.60516 0.163625 
331 1 -0.138106 0.163831 2.16096 0 -0.5 -2.24952 0.025 0 0 -1.60516 0.163625 
418 1 -0.0554251 0.16894 2.154 0 -0.5 -2.27963 0.015 0 0 -0.346714 0.0353429 
395 1 -0.110093 0.219872 2.15767 0 -0.5 -2.26384 0.015 0 0 -0.346714 0.0353429 
318 1 -0.126425 0.369158 2.15275 0 -0.5 -2.28503 0.025 0 0 -1.60516 0.163625 
406 1 -0.0920408 0.395666 2.13285 0 -0.5 -2.36891 0.015 0 0 -0.346714 0.0353429 
336 1 -0.025747 0.402523 2.1572 0 -0.5 -2.2658 0.025 0 0 -1.60516 0.163625 
313 1 -0.0392615 0.207689 2.16789 0 -0.5 -2.21911 0.025 0 0 -1.60516 0.163625 
315 1 -0.0970947 0.274406 2.18 0 -0.5 -2.16486 0.025 0 0 -1.60516 0.163625 
445 1 -0.0938501 0.344643 2.18795 0 -0.5 -2.12856 0.015 0 0 -0.346714 0.0353429 
407 1 -0.0713596 0.402089 2.18075 0 -0.5 -2.16152 0.015 0 0 -0.346714 0.0353429 
374 1 -0.133879 0.429467 2.1691 0 -0.5 -2.21371 0.015 0 0 -0.346714 0.0353429 
310 1 -0.0919271 0.439993 2.17851 0 -0.5 -2.17163 0.025 0 0 -1.60516 0.163625 
377 1 -0.128279 0.19172 2.19974 0 -0.5 -2.07353 0.015 0 0 -0.346714 0.0353429 
302 1 -0.0567477 0.188796 2.21708 -0 0 -2 0.025 0 0 0 0.163625 
401 1 -0.0913429 0.220505 2.21611 -0 0 -2 0.015 0 0 0 0.0353429 
314 1 -0.136534 0.255606 2.22152 -0 0 -2 0.025 0 0 0 0.163625 
439 1 -0.132801 0.307897 2.21462 0 -0.5 -2.00181 0.015 0 0 -0.346714 0.0353429 
344 1 -0.147144 0.345445 2.20778 0 -0.5 -2.03507 0.025 0 0 -1.60516 0.163625 
386 1 -0.118095 0.41311 2.19773 0 -0.5 -2.08294 0.015 0 0 -0.346714 0.0353429 
431 1 -0.13363 0.212461 2.23577 -0 0 -2 0.015 0 0 0 0.0353429 
355 1 -0.0483468 0.232484 2.23211 -0 0 -2 0.015 0 0 0 0.0353429 
446 1 -0.116317 0.366731 2.24659 -0 0 -2 0.015 0 0 0 0.0353429 
354 1 -0.0927402 0.400508 2.23497 -0 0 -2 0.015 0 0 0 0.0353429 
413 1 -0.0512121 0.403311 2.22902 -0 0 -2 0.015 0 0 0 0.0353429 
411 1 -0.0485728 0.448156 2.25061 -0 0 -2 0.015 0 0 0 0.0353429 
442 1 -0.149932 0.462501 2.22969 -0 0 -2 0.015 0 0 0 0.0353429 
408 1 -0.087028 0.469634 2.23423 -0 0 -2 0.015 0 0 0 0.0353429 
324 1 -0.0498553 0.178658 2.27919 -0 0 -2 0.025 0 0 0 0.163625 
350 1 -0.147794 0.212625 2.27409 -0 0 -2 0.025 0 0 0 0.163625 
399 1 -0.074527 0.226788 2.26804 -0 0 -2 0.015 0 0 0 0.0353429 
437 1 -0.0723044 0.254202 2.28314 -0 0 -2 0.015 0 0 0 0.0353429 
335 1 -0.126459 0.273678 2.27398 -0 0 -2 0.025 0 0 0 0.163625 
436 1 -0.0854574 0.281776 2.2677 -0 0 -2 0.015 0 0 0 0.0353429 
341 1 -0.148816 0.394703 2.26911 -0 0 -2 0.025 0 0 0 0.163625 
385 1 -0.0696212 0.401745 2.2775 -0 0 -2 0.015 0 0 0 0.0353429 
384 1 -0.142553 0.470858 2.27951 -0 0 -2 0.015 0 0 0 0.0353429 
382 1 -0.111765 0.470126 2.26026 -0 0 -2 0.015 0 0 0 0.0353429 
389 1 -0.0230912 0.468001 2.26971 -0 0 -2 0.015 0 0 0 0.0353429 
358 1 -0.127277 0.195217 2.30931 -0 0 -2 0.015 0 0 0 0.0353429 
367 1 -0.106717 0.230156 2.3017 -0 0 -2 0.015 0 0 0 0.0353429 
326 1 -0.145564 0.324649 2.31023 -0 0 -2 0.025 0 0 0 0.163625 
394 1 -0.145405 0.426519 2.29567 -0 0 -2 0.015 0 0 0 0.0353429 
424 1 -0.118548 0.427887 2.31049 -0 0 -2 0.015 0 0 0 0.0353429 
427 1 -0.116274 0.458291 2.288 -0 0 -2 0.015 0 0 0 0.0353429 
319 1 -0.0687817 0.474805 2.30788 -0 0 -2 0.025 0 0 0 0.163625 
426 1 -0.0179373 0.455344 2.30149 -0 0 -2 0.015 0 0 0 0.0353429 
433 1 -0.118613 0.17501 2.33362 -0 0 -2 0.015 0 0 0 0.0353429 
420 1 -0.037203 0.182681 2.3356 -0 0 -2 0.015 0 0 0 0.0353429 
402 1 -0.101682 0.217667 2.33749 -0 0 -2 0.015 0 0 0 0.0353429 
376 1 -0.0824761 0.237462 2.32025 -0 0 -2 0.015 0 0 0 0.0353429 
306 1 -0.116739 0.395569 2.33687 -0 0 -2 0.025 0 0 0 0.163625 
412 1 -0.0937388 0.465344 2.33997 -0 0 -2 0.015 0 0 0 0.0353429 
322 1 -0.131733 0.197689 2.36651 -0 0 -2 0.025 0 0 0 0.163625 
363 1 -0.0911777 0.291602 2.34991 -0 0 -2 0.015 0 0 0 0.0353429 
360 1 -0.116599 0.315716 2.34904 -0 0 -2 0.015 0 0 0 0.0353429 
373 1 -0.136858 0.343079 2.37144 -0 0 -2 0.015 0 0 0 0.0353429 
396 1 -0.0958984 0.364505 2.36764 -0 0 -2 0.015 0 0 0 0.0353429 
369 1 -0.138958 0.401078 2.37295 -0 0 -2 0.015 0 0 0 0.0353429 
397 1 -0.0557758 0.403383 2.35194 -0 0 -2 0.015 0 0 0 0.0353429 
383 1 -0.0262689 0.419173 2.37354 -0 0 -2 0.015 0 0 0 0.0353429 
381 1 -0.0827007 0.433694 2.3647 -0 0 -2 0.015 0 0 0 0.0353429 
371 1 -0.0449321 0.442824 2.34813 -0 0 -2 0.015 0 0 0 0.0353429 
308 1 -0.0755208 0.211588 2.38533 -0 0 -2 0.025 0 0 0 0.163625 
415 1 -0.127182 0.240475 2.39763 -0 0 -2 0.015 0 0 0 0.0353429 
398 1 -0.0484497 0.240461 2.37925 -0 0 -2 0.015 0 0 0 0.0353429 
343 1 -0.140775 0.298259 2.40158 -0 0 -2 0.025 0 0 0 0.163625 
438 1 -0.0987495 0.291508 2.38631 -0 0 -2 0.015 0 0 0 0.0353429 
356 1 -0.111476 0.333774 2.39017 -0 0 -2 0.015 0 0 0 0.0353429 
443 1 -0.0906469 0.387283 2.3965 -0 0 -2 0.015 0 0 0 0.0353429 
349 1 -0.116564 0.417399 2.40379 -0 0 -2 0.025 0 0 0 0.163625 
351 1 -0.0409452 0.415267 2.40639 -0 0 -2 0.015 0 0 0 0.0353429 
340 1 -0.149237 0.461517 2.38989 -0 0 -2 0.025 0 0 0 0.163625 
390 1 -0.0988461 0.19568 2.41864 -0 0 -2 0.015 0 0 0 0.0353429 
448 1 -0.0329565 0.20149 2.43132 -0 0 -2 0.015 0 0 0 0.0353429 
347 1 -0.0548177 0.23798 2.43465 -0 0 -2 0.025 0 0 0 0.163625 
419 1 -0.111609 0.178994 2.44911 -0 0 -2 0.015 0 0 0 0.0353429 
362 1 -0.0154426 0.229504 2.44742 -0 0 -2 0.015 0 0 0 0.0353429 
421 1 -0.0930175 0.256927 2.45748 -0 0 -2 0.015 0 0 0 0.0353429 
378 1 -0.121409 0.285313 2.43855 -0 0 -2 0.015 0 0 0 0.0353429 
312 1 -0.134707 0.344673 2.4392 -0 0 -2 0.025 0 0 0 0.163625 
359 1 -0.107325 0.388274 2.44351 -0 0 -2 0.015 0 0 0 0.0353429 
303 1 -0.0551599 0.406314 2.44767 -0 0 -2 0.025 0 0 0 0.163625 
365 1 -0.146907 0.425762 2.46202 -0 0 -2 0.015 0 0 0 0.0353429 
334 1 -0.103439 0.440728 2.4539 -0 0 -2 0.025 0 0 0 0.163625 
417 1 -0.0160313 0.444009 2.43919 -0 0 -2 0.015 0 0 0 0.0353429 
346 1 -0.149998 0.46436 2.44409 -0 0 -2 0.025 0 0 0 0.163625 
309 1 -0.144284 0.205271 2.49806 -0 0 -2 0.025 0 0 0 0.163625 
320 1 -0.0648735 0.208579 2.4884 -0 0 -2 0.025 0 0 0 0.163625 
325 1 -0.117824 0.294875 2.47962 -0 0 -2 0.025 0 0 0 0.163625 
372 1 -0.0702168 0.391047 2.49178 -0 0 -2 0.015 0 0 0 0.0353429 
447 1 -0.122284 0.473304 2.48895 -0 0 -2 0.015 0 0 0 0.0353429 
379 1 -0.0327871 0.203074 2.51603 -0 0 -2 0.015 0 0 0 0.0353429 
430 1 -0.123083 0.250988 2.50462 -0 0 -2 0.015 0 0 0 0.0353429 
403 1 -0.0833248 0.256507 2.50657 -0 0 -2 0.015 0 0 0 0.0353429 
387 1 -0.0901615 0.367162 2.50018 -0 0 -2 0.015 0 0 0 0.0353429 
393 1 -0.015571 0.425619 2.51366 -0 0 -2 0.015 0 0 0 0.0353429 
338 1 -0.0583644 0.458496 2.49925 -0 0 -2 0.025 0 0 0 0.163625 
316 1 -0.0983119 0.181261 2.53841 -0 0 -2 0.025 0 0 0 0.163625 
364 1 -0.0453235 0.209912 2.54659 -0 0 -2 0.015 0 0 0 0.0353429 
321 1 -0.126579 0.250186 2.54726 -0 0 -2 0.025 0 0 0 0.163625 
357 1 -0.0584785 0.247404 2.53425 -0 0 -2 0.015 0 0 0 0.0353429 
410 1 -0.145474 0.298701 2.55035 -0 0 -2 0.015 0 0 0 0.0353429 
333 1 -0.0978849 0.312107 2.54792 -0 0 -2 0.025 0 0 0 0.163625 
380 1 -0.127355 0.355901 2.54331 -0 0 -2 0.015 0 0 0 0.0353429 
337 1 -0.142368 0.393123 2.55788 -0 0 -2 0.025 0 0 0 0.163625 
301 1 -0.0884221 0.421264 2.53936 -0 0 -2 0.025 0 0 0 0.163625 
428 1 -0.0387226 0.430102 2.54262 -0 0 -2 0.015 0 0 0 0.0353429 
329 1 -0.123479 0.457221 2.53685 -0 0 -2 0.025 0 0 0 0.163625 
450 1 -0.0322061 0.474788 2.54345 -0 0 -2 0.015 0 0 0 0.0353429 
332 1 -0.0814262 0.231721 2.58518 -0 0 -2 0.025 0 0 0 0.163625 
400 1 -0.135353 0.274705 2.58782 -0 0 -2 0.015 0 0 0 0.0353429 
425 1 -0.074083 0.175677 2.59545 -0 0 -2 0.015 0 0 0 0.0353429 
404 1 -0.119976 0.192749 2.61139 -0 0 -2 0.015 0 0 0 0.0353429 
311 1 -0.0354402 0.189328 2.60316 -0 0 -2 0.025 0 0 0 0.163625 
345 1 -0.128178 0.236209 2.60886 -0 0 -2 0.025 0 0 0 0.163625 
435 1 -0.0960728 0.272801 2.61172 -0 0 -2 0.015 0 0 0 0.0353429 
317 1 -0.129905 0.313645 2.60065 -0 0 -2 0.025 0 0 0 0.163625 
366 1 -0.144217 0.391047 2.59891 -0 0 -2 0.015 0 0 0 0.0353429 
339 1 -0.0802774 0.437645 2.59507 -0 0 -2 0.025 0 0 0 0.163625 
405 1 -0.038992 0.42438 2.60304 -0 0 -2 0.015 0 0 0 0.0353429 
305 1 -0.0452536 0.474362 2.59545 -0 0 -2 0.025 0 0 0 0.163625 
444 1 -0.0159467 0.465681 2.6236 -0 0 -2 0.015 0 0 0 0.0353429 
289 1 0.0997837 0.240243 0.542254 0.0203384 -0.134604 -6.21415 0.015 0 0 -0.346714 0.0353429 
284 1 0.0687464 -0.0136879 0.669796 -0.0310215 -0.613333 -5.90887 0.015 0 0 -0.346714 0.0353429 
206 1 0.101721 0.017435 0.707403 0.057048 -0.582454 -5.83333 0.015 0 0 -0.346714 0.0353429 
199 1 0.0897708 0.143776 0.702487 -0.00278668 -0.321029 -5.88581 0.025 0 0 -1.60516 0.163625 
272 1 0.0168276 0.257548 0.705259 0 -0.5 -5.79838 0.015 0 0 -0.346714 0.0353429 
203 1 0.0667127 -0.0167672 0.710413 0 -0.5 -5.78965 0.015 0 0 -0.346714 0.0353429 
259 1 0.149131 0.0238265 0.739122 0 -0.5 -5.7408 0.015 0 0 -0.346714 0.0353429 
237 1 0.13186 0.0494478 0.734246 0.0724848 -0.475593 -5.73833 0.015 0 0 -0.346714 0.0353429 
214 1 0.144386 0.169733 0.721157 0 -0.5 -5.77141 0.015 0 0 -0.346714 0.0353429 
171 1 0.0955264 0.185107 0.738377 0 -0.5 -5.74207 0.025 0 0 -1.60516 0.163625 
213 1 0.0350777 0.22257 0.710574 0 -0.5 -5.78936 0.015 0 0 -0.346714 0.0353429 
226 1 0.110692 0.231304 0.732808 0 -0.5 -5.75159 0.015 0 0 -0.346714 0.0353429 
241 1 0.0849537 0.253018 0.726296 0 -0.5 -5.76267 0.015 0 0 -0.346714 0.0353429 
263 1 0.025742 0.0444937 0.752519 0 -0.5 -5.71784 0.015 0 0 -0.346714 0.0353429 
220 1 0.0151093 -0.00247704 0.784488 -0.0669262 -0.554313 -5.65563 0.015 0 0 -0.346714 0.0353429 
116 1 0.0360491 0.152246 0.772903 0.36535 -0.287166 -5.77408 0.015 0 0 -0.346714 0.0353429 
177 1 0.163436 0.159776 0.783016 0.112606 -0.398162 -5.67064 0.025 0 0 -1.60516 0.163625 
290 1 0.15186 0.222057 0.830196 0.0439512 -0.299137 -5.54428 0.015 0 0 -0.346714 0.0353429 
166 1 0.0609489 0.287253 0.829671 0 -0.5 -5.58394 0.025 0 0 -1.60516 0.163625 
184 1 0.11251 0.285841 0.822896 0 -0.5 -5.59581 0.025 0 0 -1.60516 0.163625 
249 1 0.0491797 0.223421 0.848363 0 -0.5 -5.55097 0.015 0 0 -0.346714 0.0353429 
270 1 0.0946744 0.215669 0.862934 0 -0.5 -5.52517 0.015 0 0 -0.346714 0.0353429 
216 1 0.0920307 0.0149786 0.89384 0.0481324 -0.610657 -5.44801 0.015 0 0 -0.346714 0.0353429 
222 1 0.123753 0.0256614 0.884839 0 -0.5 -5.48613 0.015 0 0 -0.346714 0.0353429 
294 1 0.128315 0.248152 0.880232 0 -0.5 -5.49437 0.015 0 0 -0.346714 0.0353429 
170 1 0.187692 0.21607 0.908904 0.161731 -0.381986 -5.45771 0.025 0 0 -1.60516 0.163625 
231 1 0.0350342 0.24562 0.923829 0 -0.5 -5.41599 0.015 0 0 -0.346714 0.0353429 
180 1 0.0378654 0.0411212 0.927266 -0.021889 -0.504465 -5.40342 0.025 0 0 -1.60516 0.163625 
253 1 0.123075 0.133069 0.930044 0 -0.5 -5.40471 0.015 0 0 -0.346714 0.0353429 
169 1 0.0892107 0.254668 0.948208 0 -0.5 -5.37165 0.025 0 0 -1.60516 0.163625 
209 1 0.0969746 0.0212476 0.979566 0 -0.5 -5.31406 0.015 0 0 -0.346714 0.0353429 
282 1 0.0105571 0.0946283 0.964421 -0.2609 -0.673185 -5.31997 0.015 0 0 -0.346714 0.0353429 
278 1 0.113612 0.155965 1.01663 0 -0.5 -5.2452 0.015 0 0 -0.346714 0.0353429 
257 1 0.139837 0.268641 1.01716 0 -0.5 -5.24422 0.015 0 0 -0.346714 0.0353429 
296 1 0.146983 0.137001 1.01862 0 -0.5 -5.24147 0.015 0 0 -0.346714 0.0353429 
235 1 0.134937 0.0243847 1.07378 0 -0.5 -5.13719 0.015 0 0 -0.346714 0.0353429 
269 1 0.141487 0.0535043 1.0576 0 -0.5 -5.16799 0.015 0 0 -0.346714 0.0353429 
168 1 0.0261487 0.0581037 1.06071 0 -0.5 -5.16211 0.025 0 0 -1.60516 0.163625 
217 1 0.133752 0.103691 1.07214 0 -0.5 -5.14033 0.015 0 0 -0.346714 0.0353429 
182 1 0.114565 0.213779 1.06803 0 -0.5 -5.14818 0.025 0 0 -1.60516 0.163625 
162 1 0.0478022 0.258457 1.05207 0 -0.5 -5.17849 0.025 0 0 -1.60516 0.163625 
176 1 0.0399362 0.310472 1.07223 0 -0.5 -5.14013 0.025 0 0 -1.60516 0.163625 
286 1 0.147755 0.30287 1.07101 0 -0.5 -5.14249 0.015 0 0 -0.346714 0.0353429 
153 1 0.0895866 0.0187598 1.10813 0 -0.5 -5.07117 0.025 0 0 -1.60516 0.163625 
185 1 0.0936576 0.102666 1.08123 0 -0.5 -5.12296 0.025 0 0 -1.60516 0.163625 
211 1 0.0694768 0.0769716 1.1294 0 -0.5 -5.02987 0.015 0 0 -0.346714 0.0353429 
251 1 0.126174 0.171559 1.12209 0 -0.5 -5.04409 0.015 0 0 -0.346714 0.0353429 
161 1 0.135356 0.12285 1.17076 0 -0.5 -4.94854 0.025 0 0 -1.60516 0.163625 
291 1 0.140432 0.247523 1.14549 0 -0.5 -4.99838 0.015 0 0 -0.346714 0.0353429 
159 1 0.087245 0.306208 1.14694 0 -0.5 -4.99553 0.025 0 0 -1.60516 0.163625 
300 1 0.149285 0.30024 1.1609 0 -0.5 -4.96806 0.015 0 0 -0.346714 0.0353429 
204 1 0.134881 0.0652481 1.17189 0 -0.5 -4.94629 0.015 0 0 -0.346714 0.0353429 
230 1 0.118982 0.163372 1.18989 0 -0.5 -4.91048 0.015 0 0 -0.346714 0.0353429 
228 1 0.0279693 0.272593 1.17946 0 -0.5 -4.93128 0.015 0 0 -0.346714 0.0353429 
175 1 0.0941494 0.0580588 1.2111 0 -0.5 -4.8679 0.025 0 0 -1.60516 0.163625 
250 1 0.138716 0.304193 1.23029 0 -0.5 -4.82906 0.015 0 0 -0.346714 0.0353429 
299 1 0.0153001 0.0815412 1.25657 0 -0.5 -4.7754 0.015 0 0 -0.346714 0.0353429 
293 1 0.0548164 0.0971452 1.24787 0 -0.5 -4.79325 0.015 0 0 -0.346714 0.0353429 
192 1 0.134392 0.221049 1.23734 0 -0.5 -4.81473 0.025 0 0 -1.60516 0.163625 
285 1 0.0870748 0.258259 1.23917 0 -0.5 -4.81101 0.015 0 0 -0.346714 0.0353429 
256 1 0.0868225 0.290057 1.23319 0 -0.5 -4.82317 0.015 0 0 -0.346714 0.0353429 
275 1 0.0211058 0.304962 1.25465 0 -0.5 -4.77932 0.015 0 0 -0.346714 0.0353429 
246 1 0.0494565 0.32501 1.23999 0 -0.5 -4.80934 0.015 0 0 -0.346714 0.0353429 
240 1 0.0956629 0.32188 1.24258 0 -0.5 -4.80404 0.015 0 0 -0.346714 0.0353429 
202 1 0.126943 0.0561189 1.28857 0 -0.5 -4.70918 0.015 0 0 -0.346714 0.0353429 
200 1 0.112803 0.114149 1.27456 0 -0.5 -4.73831 0.025 0 0 -1.60516 0.163625 
255 1 0.0340792 0.272865 1.2814 0 -0.5 -4.72409 0.015 0 0 -0.346714 0.0353429 
252 1 0.131256 0.281424 1.28141 0 -0.5 -4.72409 0.015 0 0 -0.346714 0.0353429 
245 1 0.0868358 0.0817147 1.3005 0 -0.5 -4.68426 0.015 0 0 -0.346714 0.0353429 
247 1 0.0532922 0.109565 1.31981 0 -0.5 -4.64365 0.015 0 0 -0.346714 0.0353429 
189 1 0.0509787 0.055512 1.32706 0 -0.5 -4.62834 0.025 0 0 -1.60516 0.163625 
154 1 0.116388 0.201122 1.34056 0 -0.5 -4.5996 0.025 0 0 -1.60516 0.163625 
190 1 0.11779 0.314732 1.35116 0 -0.5 -4.57694 0.025 0 0 -1.60516 0.163625 
287 1 0.130384 0.0463502 1.35916 0 -0.5 -4.55977 0.015 0 0 -0.346714 0.0353429 
288 1 0.0326968 0.0914455 1.37063 0 -0.5 -4.53505 0.015 0 0 -0.346714 0.0353429 
295 1 0.103955 0.260828 1.3741 0 -0.5 -4.5275 0.015 0 0 -0.346714 0.0353429 
156 1 0.0411221 0.309187 1.37688 0 -0.5 -4.52151 0.025 0 0 -1.60516 0.163625 
210 1 0.0872868 0.0533864 1.40551 0 -0.5 -4.45893 0.015 0 0 -0.346714 0.0353429 
181 1 0.070397 0.0923443 1.41407 0 -0.5 -4.44009 0.025 0 0 -1.60516 0.163625 
165 1 0.148355 0.144191 1.40146 0 -0.5 -4.46785 0.025 0 0 -1.60516 0.163625 
260 1 0.0198171 0.10112 1.44608 0 -0.5 -4.36877 0.015 0 0 -0.346714 0.0353429 
152 1 0.089118 0.159144 1.4383 0 -0.5 -4.38623 0.025 0 0 -1.60516 0.163625 
279 1 0.11959 0.219322 1.44845 0 -0.5 -4.36347 0.015 0 0 -0.346714 0.0353429 
233 1 0.0406697 0.0712917 1.46088 0 -0.5 -4.33542 0.015 0 0 -0.346714 0.0353429 
262 1 0.0888361 0.253008 1.45536 0 -0.5 -4.34788 0.015 0 0 -0.346714 0.0353429 
207 1 0.128901 0.270384 1.47553 0 -0.5 -4.30216 0.015 0 0 -0.346714 0.0353429 
234 1 0.0945525 0.302871 1.44966 0 -0.5 -4.36073 0.015 0 0 -0.346714 0.0353429 
208 1 0.0680799 0.339251 1.45689 0 -0.5 -4.34444 0.015 0 0 -0.346714 0.0353429 
194 1 0.131621 0.330036 1.4723 0 -0.5 -4.30952 0.025 0 0 -1.60516 0.163625 
223 1 0.0343911 0.352571 1.49244 0 -0.5 -4.26341 0.015 0 0 -0.346714 0.0353429 