ITEM: TIMESTEP
54400
ITEM: NUMBER OF ATOMS
600
ITEM: BOX BOUNDS mm mm mm
-1 1
-1 1
-0.450391 2.85
ITEM: ATOMS id type x y z vx vy vz radius fx fy fz mass 
68 1 -0.0997213 -0.0267286 -0.259044 0 -0.5 -7.2485 0.015 0 0 -0.346714 0.0353429 
45 1 -0.0943793 -0.0757624 -0.221633 0 -0.5 -7.19768 0.025 0 0 -1.60516 0.163625 
122 1 -0.0685979 -0.0223448 -0.220915 0.00811842 -0.517403 -7.19606 0.015 0 0 -0.346714 0.0353429 
137 1 -0.090222 0.0242226 -0.241616 -0.00924354 -0.479856 -7.22564 0.015 0 0 -0.346714 0.0353429 
33 1 -0.129286 0.164605 -0.229629 0 -0.5 -7.20857 0.025 0 0 -1.60516 0.163625 
119 1 -0.0370509 -0.0868114 -0.182967 0 -0.5 -7.14481 0.015 0 0 -0.346714 0.0353429 
43 1 -0.116198 0.0757854 -0.193919 0 -0.5 -7.15981 0.025 0 0 -1.60516 0.163625 
111 1 -0.0487783 0.2081 -0.193134 0 -0.5 -7.15874 0.015 0 0 -0.346714 0.0353429 
75 1 -0.0493142 -0.0363279 -0.160241 0 -0.5 -7.11351 0.015 0 0 -0.346714 0.0353429 
78 1 -0.0422369 0.171955 -0.172771 0 -0.5 -7.13078 0.015 0 0 -0.346714 0.0353429 
89 1 -0.129145 -0.00769212 -0.151844 0 -0.5 -7.10194 0.015 0 0 -0.346714 0.0353429 
59 1 -0.0865612 0.120868 -0.133273 0 -0.5 -7.07623 0.015 0 0 -0.346714 0.0353429 
92 1 -0.131017 0.215327 -0.113628 0 -0.5 -7.04896 0.015 0 0 -0.346714 0.0353429 
26 1 -0.0413688 0.0693214 -0.0648192 0.14857 -0.341553 -7.01801 0.025 0 0 -1.60516 0.163625 
98 1 -0.147127 0.0644418 -0.041068 0 -0.5 -6.94723 0.015 0 0 -0.346714 0.0353429 
151 1 -0.0686397 0.146527 -0.0418218 0 -0.5 -6.94831 0.015 0 0 -0.346714 0.0353429 
8 1 -0.104188 -0.068537 -0.0191726 0 -0.5 -6.91623 0.025 0 0 -1.60516 0.163625 
3 1 -0.141317 0.129388 -0.00913616 0 -0.5 -6.90201 0.025 0 0 -1.60516 0.163625 
140 1 -0.125739 0.0415564 0.0268235 0 -0.5 -6.8507 0.015 0 0 -0.346714 0.0353429 
72 1 -0.105673 0.166796 0.0081469 0 -0.5 -6.87738 0.015 0 0 -0.346714 0.0353429 
40 1 -0.104474 0.218198 0.0282559 0 -0.5 -6.84864 0.025 0 0 -1.60516 0.163625 
117 1 -0.0596227 -0.0569792 0.0588414 0 -0.5 -6.80469 0.015 0 0 -0.346714 0.0353429 
100 1 -0.0681017 -7.89884e-05 0.0330581 0 -0.5 -6.84177 0.015 0 0 -0.346714 0.0353429 
118 1 -0.0372647 0.201681 0.0396176 0 -0.5 -6.83236 0.015 0 0 -0.346714 0.0353429 
148 1 -0.188428 0.0896974 0.0764395 -0.171679 -0.397353 -6.85403 0.015 0 0 -0.346714 0.0353429 
51 1 -0.161508 -0.0448338 0.0909815 -0.0265052 -0.519812 -6.75279 0.025 0 0 -1.60516 0.163625 
282 1 -0.0270124 -0.00231032 0.0966351 -0.2609 -0.673185 -6.73261 0.015 0 0 -0.346714 0.0353429 
11 1 -0.0968729 0.116245 0.147904 0.022917 -0.457889 -6.69151 0.025 0 0 -1.60516 0.163625 
90 1 -0.146535 0.219667 0.131828 0 -0.5 -6.69865 0.015 0 0 -0.346714 0.0353429 
60 1 -0.0770515 -0.0480724 0.156535 0 -0.5 -6.66235 0.015 0 0 -0.346714 0.0353429 
50 1 -0.130982 0.176355 0.158341 0 -0.5 -6.6597 0.025 0 0 -1.60516 0.163625 
105 1 -0.22927 0.118372 0.208944 -0.321192 -0.368687 -6.57522 0.015 0 0 -0.346714 0.0353429 
74 1 -0.0790012 0.163893 0.198989 0 -0.5 -6.59957 0.015 0 0 -0.346714 0.0353429 
44 1 -0.125916 -0.0564035 0.229818 0 -0.5 -6.55356 0.025 0 0 -1.60516 0.163625 
76 1 -0.0202065 0.19207 0.217489 0 -0.5 -6.572 0.015 0 0 -0.346714 0.0353429 
36 1 -0.103411 -0.00968755 0.25478 0 -0.5 -6.51608 0.025 0 0 -1.60516 0.163625 
29 1 -0.0788351 0.206182 0.247804 0 -0.5 -6.52658 0.025 0 0 -1.60516 0.163625 
54 1 -0.168824 0.0218912 0.280696 -0.0956439 -0.529683 -6.46478 0.015 0 0 -0.346714 0.0353429 
114 1 -0.0720718 0.0204933 0.295978 -0.00040144 -0.499666 -6.45387 0.015 0 0 -0.346714 0.0353429 
73 1 -0.0639552 -0.0302333 0.331069 0 -0.5 -6.40023 0.015 0 0 -0.346714 0.0353429 
113 1 -0.118506 0.241198 0.323688 0 -0.5 -6.41151 0.015 0 0 -0.346714 0.0353429 
146 1 -0.109965 -0.0430837 0.357023 0 -0.5 -6.3603 0.015 0 0 -0.346714 0.0353429 
2 1 -0.110349 0.117071 0.33771 0 -0.5 -6.39002 0.025 0 0 -1.60516 0.163625 
12 1 -0.0363281 0.226336 0.355256 0 -0.5 -6.36305 0.025 0 0 -1.60516 0.163625 
57 1 -0.120673 0.0730605 0.388448 0 -0.5 -6.31164 0.015 0 0 -0.346714 0.0353429 
88 1 -0.0666498 0.183919 0.375756 0 -0.5 -6.33136 0.015 0 0 -0.346714 0.0353429 
99 1 -0.146283 0.0215171 0.403265 0 -0.5 -6.28859 0.015 0 0 -0.346714 0.0353429 
10 1 -0.0685675 0.191184 0.415414 0.0635655 -0.375939 -6.34528 0.025 0 0 -1.60516 0.163625 
83 1 -0.108229 0.051146 0.444118 0 -0.5 -6.22453 0.015 0 0 -0.346714 0.0353429 
19 1 -0.0715757 0.0312524 0.448525 0 -0.5 -6.21756 0.025 0 0 -1.60516 0.163625 
34 1 -0.138562 0.190511 0.437451 0 -0.5 -6.23503 0.025 0 0 -1.60516 0.163625 
66 1 -0.0281121 0.00882277 0.453191 0 -0.5 -6.21021 0.015 0 0 -0.346714 0.0353429 
81 1 -0.0386086 0.202232 0.465251 0.07636 -0.438847 -6.15772 0.015 0 0 -0.346714 0.0353429 
71 1 -0.145263 0.234198 0.462939 0 -0.5 -6.19481 0.015 0 0 -0.346714 0.0353429 
67 1 -0.0183057 -0.0356113 0.483741 0 -0.5 -6.16175 0.015 0 0 -0.346714 0.0353429 
24 1 -0.138394 -0.00854811 0.498693 0 -0.5 -6.13791 0.025 0 0 -1.60516 0.163625 
133 1 -0.127566 0.107944 0.509238 0 -0.5 -6.12103 0.015 0 0 -0.346714 0.0353429 
95 1 -0.10482 0.195312 0.513452 0 -0.5 -6.11426 0.015 0 0 -0.346714 0.0353429 
39 1 -0.0696793 0.24501 0.513587 0 -0.5 -6.11407 0.025 0 0 -1.60516 0.163625 
70 1 -0.107191 0.0179244 0.557884 0 -0.5 -6.04255 0.015 0 0 -0.346714 0.0353429 
103 1 -0.135939 0.0357223 0.543179 0 -0.5 -6.06639 0.015 0 0 -0.346714 0.0353429 
143 1 -0.11631 0.253682 0.55366 0 -0.5 -6.04942 0.015 0 0 -0.346714 0.0353429 
28 1 -0.0685748 -0.0059299 0.588045 0 -0.5 -5.99341 0.025 0 0 -1.60516 0.163625 
97 1 -0.0338223 0.021144 0.57724 0 -0.5 -6.01106 0.015 0 0 -0.346714 0.0353429 
115 1 -0.076478 0.0564311 0.577726 0 -0.5 -6.01028 0.015 0 0 -0.346714 0.0353429 
85 1 -0.13789 0.178015 0.580605 0 -0.5 -6.00557 0.015 0 0 -0.346714 0.0353429 
134 1 -0.137197 0.218367 0.599823 0 -0.5 -5.97408 0.015 0 0 -0.346714 0.0353429 
96 1 -0.131998 0.0210814 0.631357 0 -0.5 -5.92209 0.015 0 0 -0.346714 0.0353429 
126 1 -0.122909 0.102638 0.614599 -0.0288748 -0.539424 -5.92891 0.015 0 0 -0.346714 0.0353429 
120 1 -0.148569 0.267261 0.610633 0 -0.5 -5.95632 0.015 0 0 -0.346714 0.0353429 
77 1 -0.0297287 0.246749 0.608234 0 -0.5 -5.96025 0.015 0 0 -0.346714 0.0353429 
38 1 -0.121616 0.0621879 0.655496 0 -0.5 -5.88196 0.025 0 0 -1.60516 0.163625 
130 1 -0.0642546 0.0564407 0.70032 0 -0.5 -5.80672 0.015 0 0 -0.346714 0.0353429 
23 1 -0.134189 0.198519 0.699279 0 -0.5 -5.80849 0.025 0 0 -1.60516 0.163625 
31 1 -0.140814 -0.00112273 0.743193 0 -0.5 -5.73383 0.025 0 0 -1.60516 0.163625 
150 1 -0.100106 0.0332069 0.726411 0 -0.5 -5.76248 0.015 0 0 -0.346714 0.0353429 
18 1 -0.106015 0.263686 0.727843 0 -0.5 -5.76003 0.025 0 0 -1.60516 0.163625 
4 1 -0.0330873 0.276857 0.726935 0 -0.5 -5.7616 0.025 0 0 -1.60516 0.163625 
106 1 -0.13787 0.362116 0.753981 -0.0998962 -0.230395 -5.84257 0.015 0 0 -0.346714 0.0353429 
110 1 -0.0868918 -0.0115835 0.77339 0 -0.5 -5.68194 0.015 0 0 -0.346714 0.0353429 
93 1 -0.0244706 0.000157788 0.788637 0 -0.5 -5.65555 0.015 0 0 -0.346714 0.0353429 
17 1 -0.134634 0.114027 0.796319 0 -0.5 -5.64221 0.025 0 0 -1.60516 0.163625 
136 1 -0.0832352 0.207008 0.792597 0 -0.5 -5.64868 0.015 0 0 -0.346714 0.0353429 
30 1 -0.0481876 0.234857 0.801453 0 -0.5 -5.63328 0.025 0 0 -1.60516 0.163625 
109 1 -0.0676248 0.28208 0.800258 0 -0.5 -5.63534 0.015 0 0 -0.346714 0.0353429 
1 1 -0.149435 0.43112 0.844364 -0.021394 -0.0706631 -5.70753 0.025 0 0 -1.60516 0.163625 
108 1 -0.089121 0.0208235 0.847596 0 -0.5 -5.55235 0.015 0 0 -0.346714 0.0353429 
69 1 -0.020474 0.0410825 0.8722 0 -0.5 -5.50869 0.015 0 0 -0.346714 0.0353429 
35 1 -0.146938 0.214792 0.879513 0 -0.5 -5.49565 0.025 0 0 -1.60516 0.163625 
102 1 -0.11709 0.0208995 0.913412 0 -0.5 -5.43482 0.015 0 0 -0.346714 0.0353429 
14 1 -0.0571303 0.0129755 0.925176 0 -0.5 -5.41354 0.025 0 0 -1.60516 0.163625 
139 1 -0.104092 0.078572 0.913239 0 -0.5 -5.43512 0.015 0 0 -0.346714 0.0353429 
144 1 -0.0691235 0.0814741 0.912217 0 -0.5 -5.43698 0.015 0 0 -0.346714 0.0353429 
22 1 -0.102489 0.146306 0.907697 0 -0.5 -5.44512 0.025 0 0 -1.60516 0.163625 
149 1 -0.0459705 0.133153 0.913132 0.199959 -0.45766 -5.64229 0.015 0 0 -0.346714 0.0353429 
55 1 -0.0959997 0.2524 0.930301 -7.52477e-06 -0.49998 -5.40425 0.015 0 0 -0.346714 0.0353429 
141 1 -0.136875 0.0942642 0.941211 0 -0.5 -5.3844 0.015 0 0 -0.346714 0.0353429 
21 1 -0.0470047 0.2975 0.95699 0 -0.5 -5.35556 0.025 0 0 -1.60516 0.163625 
94 1 -0.231916 0.223656 0.974371 -0.356499 -0.190573 -5.39179 0.015 0 0 -0.346714 0.0353429 
87 1 -0.113676 0.215588 0.972968 0 -0.5 -5.32623 0.015 0 0 -0.346714 0.0353429 
107 1 -0.141609 0.00994767 1.00143 0 -0.5 -5.27355 0.015 0 0 -0.346714 0.0353429 
84 1 -0.116406 0.173786 1.0258 0 -0.5 -5.22803 0.015 0 0 -0.346714 0.0353429 
147 1 -0.100309 0.285431 1.01846 0 -0.5 -5.24176 0.015 0 0 -0.346714 0.0353429 
142 1 -0.0724928 0.0347478 1.05269 0 -0.5 -5.17731 0.015 0 0 -0.346714 0.0353429 
112 1 -0.073338 0.0932787 1.0295 0 -0.5 -5.22106 0.015 0 0 -0.346714 0.0353429 
47 1 -0.140465 0.25745 1.05279 0 -0.5 -5.17712 0.025 0 0 -1.60516 0.163625 
145 1 -0.0934491 0.250113 1.05497 0 -0.5 -5.173 0.015 0 0 -0.346714 0.0353429 
6 1 -0.0775959 0.0785851 1.07751 0.101461 -0.428163 -5.13649 0.025 0 0 -1.60516 0.163625 
80 1 -0.102893 0.220893 1.07189 0 -0.5 -5.14082 0.015 0 0 -0.346714 0.0353429 
32 1 -0.168833 0.0157167 1.10517 -0.0613285 -0.540948 -5.07355 0.025 0 0 -1.60516 0.163625 
135 1 -0.140472 0.102893 1.10279 0 -0.5 -5.08147 0.015 0 0 -0.346714 0.0353429 
15 1 -0.0794847 0.180855 1.11052 0.0430154 -0.390763 -5.02929 0.025 0 0 -1.60516 0.163625 
62 1 -0.0849655 0.310406 1.1025 0 -0.5 -5.08206 0.015 0 0 -0.346714 0.0353429 
138 1 -0.0317395 0.0373156 1.12304 0 -0.5 -5.04223 0.015 0 0 -0.346714 0.0353429 
128 1 -0.145291 0.187677 1.12481 0 -0.5 -5.03879 0.015 0 0 -0.346714 0.0353429 
121 1 -0.0679495 0.292078 1.14614 0 -0.5 -4.9971 0.015 0 0 -0.346714 0.0353429 
280 1 -0.0567951 0.442839 1.12447 -0.323138 -0.0374805 -5.14414 0.015 0 0 -0.346714 0.0353429 
129 1 -0.0553418 0.0611994 1.18521 0 -0.5 -4.9198 0.015 0 0 -0.346714 0.0353429 
13 1 -0.146779 0.143821 1.20072 0 -0.5 -4.8888 0.025 0 0 -1.60516 0.163625 
101 1 -0.102489 0.153824 1.1964 0 -0.5 -4.89743 0.015 0 0 -0.346714 0.0353429 
37 1 -0.0716655 0.256665 1.19581 0 -0.5 -4.89861 0.025 0 0 -1.60516 0.163625 
46 1 -0.032303 0.318569 1.20135 0 -0.5 -4.88752 0.025 0 0 -1.60516 0.163625 
52 1 -0.100497 0.0464895 1.22144 0 -0.5 -4.84701 0.015 0 0 -0.346714 0.0353429 
61 1 -0.0231802 0.0309348 1.21271 0 -0.5 -4.86467 0.015 0 0 -0.346714 0.0353429 
5 1 -0.137704 0.0744118 1.23277 0 -0.5 -4.82405 0.025 0 0 -1.60516 0.163625 
79 1 -0.0179342 0.0649843 1.2128 0 -0.5 -4.86447 0.015 0 0 -0.346714 0.0353429 
7 1 -0.0712578 0.113449 1.23628 0 -0.5 -4.81689 0.025 0 0 -1.60516 0.163625 
20 1 -0.124339 0.201888 1.22925 0 -0.5 -4.83122 0.025 0 0 -1.60516 0.163625 
91 1 -0.124131 0.250132 1.21329 0 -0.5 -4.86349 0.015 0 0 -0.346714 0.0353429 
58 1 -0.0969698 0.147891 1.29149 0 -0.5 -4.7031 0.015 0 0 -0.346714 0.0353429 
86 1 -0.142939 0.243059 1.27327 0 -0.5 -4.74096 0.015 0 0 -0.346714 0.0353429 
124 1 -0.136447 0.273377 1.29136 0 -0.5 -4.70339 0.015 0 0 -0.346714 0.0353429 
9 1 -0.0320364 0.277159 1.27687 0 -0.5 -4.73351 0.025 0 0 -1.60516 0.163625 
65 1 -0.147981 0.0510967 1.30588 0 -0.5 -4.67298 0.015 0 0 -0.346714 0.0353429 
41 1 -0.107908 0.328758 1.30318 0 -0.5 -4.67867 0.025 0 0 -1.60516 0.163625 
104 1 -0.138444 0.215217 1.34484 0 -0.5 -4.59048 0.015 0 0 -0.346714 0.0353429 
131 1 -0.025873 0.31604 1.3349 0 -0.5 -4.61167 0.015 0 0 -0.346714 0.0353429 
49 1 -0.0613084 0.0617105 1.38463 0 -0.5 -4.50464 0.025 0 0 -1.60516 0.163625 
132 1 -0.0234712 0.0841681 1.36427 0 -0.5 -4.54879 0.015 0 0 -0.346714 0.0353429 
48 1 -0.144727 0.141852 1.36344 0 -0.5 -4.55055 0.025 0 0 -1.60516 0.163625 
53 1 -0.106432 0.18634 1.36563 0 -0.5 -4.54584 0.015 0 0 -0.346714 0.0353429 
16 1 -0.129915 0.285079 1.38784 0 -0.5 -4.49768 0.025 0 0 -1.60516 0.163625 
27 1 -0.0637137 0.311885 1.3885 0 -0.5 -4.4962 0.025 0 0 -1.60516 0.163625 
82 1 -0.0851821 0.275627 1.39435 0 -0.5 -4.48345 0.015 0 0 -0.346714 0.0353429 
63 1 -0.147823 0.341713 1.4039 0 -0.5 -4.46246 0.015 0 0 -0.346714 0.0353429 
25 1 -0.104447 0.0957853 1.43324 0 -0.5 -4.39751 0.025 0 0 -1.60516 0.163625 
127 1 -0.0304133 0.107621 1.42173 0 -0.5 -4.42312 0.015 0 0 -0.346714 0.0353429 
42 1 -0.132916 0.188796 1.44787 0 -0.5 -4.36475 0.025 0 0 -1.60516 0.163625 
56 1 -0.11556 0.339119 1.42159 0 -0.5 -4.42341 0.015 0 0 -0.346714 0.0353429 
361 1 -0.0655065 0.0871594 1.47986 0 -0.5 -4.29225 0.015 0 0 -0.346714 0.0353429 
123 1 -0.11925 0.245492 1.45157 0 -0.5 -4.35641 0.015 0 0 -0.346714 0.0353429 
391 1 -0.0665259 0.28619 1.48123 0 -0.5 -4.28911 0.015 0 0 -0.346714 0.0353429 
64 1 -0.145219 0.309177 1.46559 0 -0.5 -4.32472 0.015 0 0 -0.346714 0.0353429 
125 1 -0.0960051 0.301127 1.46747 0 -0.5 -4.32051 0.015 0 0 -0.346714 0.0353429 
392 1 -0.0201822 0.0593766 1.48235 0 -0.5 -4.28656 0.015 0 0 -0.346714 0.0353429 
375 1 -0.132504 0.124213 1.48928 0 -0.5 -4.27067 0.015 0 0 -0.346714 0.0353429 
353 1 -0.0778865 0.14051 1.5083 0 -0.5 -4.22672 0.015 0 0 -0.346714 0.0353429 
370 1 -0.0476722 0.358061 1.50828 0 -0.5 -4.22682 0.015 0 0 -0.346714 0.0353429 
449 1 -0.121601 0.0649702 1.5312 0 -0.5 -4.17326 0.015 0 0 -0.346714 0.0353429 
432 1 -0.110656 0.200023 1.52039 0 -0.5 -4.19857 0.015 0 0 -0.346714 0.0353429 
423 1 -0.035066 0.304352 1.51877 0 -0.5 -4.20239 0.015 0 0 -0.346714 0.0353429 
348 1 -0.0466622 0.0764938 1.54821 -0.0150753 -0.514502 -4.12911 0.025 0 0 -1.60516 0.163625 
409 1 -0.1116 0.172279 1.55511 0 -0.5 -4.11665 0.015 0 0 -0.346714 0.0353429 
434 1 -0.110177 0.332235 1.55302 0 -0.5 -4.12166 0.015 0 0 -0.346714 0.0353429 
304 1 -0.147639 0.298299 1.57834 0 -0.5 -4.06093 0.025 0 0 -1.60516 0.163625 
368 1 -0.0426125 0.110103 1.62317 0 -0.5 -3.95116 0.015 0 0 -0.346714 0.0353429 
414 1 -0.12165 0.242412 1.60776 0 -0.5 -3.98922 0.015 0 0 -0.346714 0.0353429 
416 1 -0.148865 0.263752 1.61866 0 -0.5 -3.96234 0.015 0 0 -0.346714 0.0353429 
422 1 -0.0856494 0.326628 1.6216 0 -0.5 -3.95508 0.015 0 0 -0.346714 0.0353429 
327 1 -0.047146 0.335396 1.60306 0 -0.5 -4.0008 0.025 0 0 -1.60516 0.163625 
440 1 -0.074831 0.0866332 1.65876 0 -0.5 -3.86179 0.015 0 0 -0.346714 0.0353429 
307 1 -0.141488 0.104316 1.64721 0 -0.5 -3.89102 0.025 0 0 -1.60516 0.163625 
328 1 -0.101567 0.13536 1.63726 0 -0.5 -3.91604 0.025 0 0 -1.60516 0.163625 
342 1 -0.0942786 0.286007 1.63831 0 -0.5 -3.91339 0.025 0 0 -1.60516 0.163625 
441 1 -0.0895132 0.364957 1.64755 0 -0.5 -3.89014 0.015 0 0 -0.346714 0.0353429 
388 1 -0.0545692 0.150686 1.68289 0 -0.5 -3.79999 0.015 0 0 -0.346714 0.0353429 
323 1 -0.131477 0.219813 1.68119 0 -0.5 -3.8044 0.025 0 0 -1.60516 0.163625 
352 1 -0.144025 0.323939 1.66809 0 -0.5 -3.83805 0.015 0 0 -0.346714 0.0353429 
406 1 -0.0920408 0.323666 1.69002 0 -0.5 -3.78155 0.015 0 0 -0.346714 0.0353429 
330 1 -0.125578 0.380028 1.67187 0 -0.5 -3.82834 0.025 0 0 -1.60516 0.163625 
418 1 -0.0554251 0.0969403 1.72402 0 -0.5 -3.69227 0.015 0 0 -0.346714 0.0353429 
318 1 -0.126425 0.297158 1.722 0 -0.5 -3.69767 0.025 0 0 -1.60516 0.163625 
331 1 -0.138106 0.091831 1.73532 0 -0.5 -3.66216 0.025 0 0 -1.60516 0.163625 
395 1 -0.110093 0.147872 1.72996 0 -0.5 -3.67648 0.015 0 0 -0.346714 0.0353429 
313 1 -0.0392615 0.135689 1.74663 0 -0.5 -3.63175 0.025 0 0 -1.60516 0.163625 
336 1 -0.025747 0.330523 1.72922 0 -0.5 -3.67844 0.025 0 0 -1.60516 0.163625 
374 1 -0.133879 0.357467 1.74861 0 -0.5 -3.62635 0.015 0 0 -0.346714 0.0353429 
315 1 -0.0970947 0.202406 1.76655 0 -0.5 -3.5775 0.025 0 0 -1.60516 0.163625 
445 1 -0.0938501 0.272643 1.77973 0 -0.5 -3.5412 0.015 0 0 -0.346714 0.0353429 
407 1 -0.0713596 0.330089 1.76778 0 -0.5 -3.57416 0.015 0 0 -0.346714 0.0353429 
310 1 -0.0919271 0.367993 1.76408 0 -0.5 -3.58427 0.025 0 0 -1.60516 0.163625 
377 1 -0.128279 0.11972 1.79944 0 -0.5 -3.48617 0.015 0 0 -0.346714 0.0353429 
344 1 -0.147144 0.273445 1.81302 0 -0.5 -3.44771 0.025 0 0 -1.60516 0.163625 
386 1 -0.118095 0.34111 1.79608 0 -0.5 -3.49558 0.015 0 0 -0.346714 0.0353429 
302 1 -0.0567477 0.117316 1.82885 0 -0.5 -3.40239 0.025 0 0 -1.60516 0.163625 
401 1 -0.0913429 0.14878 1.82718 0 -0.5 -3.4072 0.015 0 0 -0.346714 0.0353429 
314 1 -0.136534 0.185236 1.83637 0 -0.5 -3.38061 0.025 0 0 -1.60516 0.163625 
439 1 -0.132801 0.235897 1.82465 0 -0.5 -3.41445 0.015 0 0 -0.346714 0.0353429 
431 1 -0.13363 0.145651 1.8602 0 -0.5 -3.31076 0.015 0 0 -0.346714 0.0353429 
355 1 -0.0483468 0.164759 1.85412 0 -0.5 -3.32872 0.015 0 0 -0.346714 0.0353429 
354 1 -0.0927402 0.333498 1.85887 0 -0.5 -3.31469 0.015 0 0 -0.346714 0.0353429 
413 1 -0.0512121 0.334816 1.84898 0 -0.5 -3.34382 0.015 0 0 -0.346714 0.0353429 
442 1 -0.149932 0.394171 1.8501 0 -0.5 -3.34059 0.015 0 0 -0.346714 0.0353429 
408 1 -0.087028 0.402439 1.85765 0 -0.5 -3.31832 0.015 0 0 -0.346714 0.0353429 
446 1 -0.116317 0.302626 1.87796 0 -0.5 -3.25769 0.015 0 0 -0.346714 0.0353429 
411 1 -0.0485728 0.385056 1.8845 0 -0.5 -3.23797 0.015 0 0 -0.346714 0.0353429 
382 1 -0.108703 0.416481 1.88117 0.026541 -0.439017 -3.35391 0.015 0 0 -0.346714 0.0353429 
324 1 -0.0498553 0.122703 1.92977 0 -0.5 -3.09779 0.025 0 0 -1.60516 0.163625 
350 1 -0.147794 0.155395 1.92183 0 -0.5 -3.1228 0.025 0 0 -1.60516 0.163625 
399 1 -0.074527 0.168048 1.91235 0 -0.5 -3.15243 0.015 0 0 -0.346714 0.0353429 
437 1 -0.0723044 0.199232 1.93586 0 -0.5 -3.07846 0.015 0 0 -0.346714 0.0353429 
335 1 -0.126459 0.216418 1.92166 0 -0.5 -3.12339 0.025 0 0 -1.60516 0.163625 
436 1 -0.0854574 0.222951 1.91182 0 -0.5 -3.1541 0.015 0 0 -0.346714 0.0353429 
341 1 -0.148816 0.336228 1.91403 0 -0.5 -3.14723 0.025 0 0 -1.60516 0.163625 
385 1 -0.0696212 0.345365 1.92713 0 -0.5 -3.10613 0.015 0 0 -0.346714 0.0353429 
384 1 -0.157167 0.42136 1.92584 -0.135564 -0.440896 -3.13723 0.015 0 0 -0.346714 0.0353429 
389 1 -0.0230912 0.409676 1.91497 0 -0.5 -3.14429 0.015 0 0 -0.346714 0.0353429 
427 1 -0.107018 0.42971 1.91724 0.0988458 -0.172977 -3.39114 0.015 0 0 -0.346714 0.0353429 
367 1 -0.106717 0.179831 1.96402 0 -0.5 -2.98733 0.015 0 0 -0.346714 0.0353429 
394 1 -0.145405 0.374684 1.95496 0 -0.5 -3.01695 0.015 0 0 -0.346714 0.0353429 
426 1 -0.0179373 0.404964 1.9637 0 -0.5 -2.98841 0.015 0 0 -0.346714 0.0353429 
358 1 -0.127277 0.146792 1.97531 0 -0.5 -2.95005 0.015 0 0 -0.346714 0.0353429 
376 1 -0.0824761 0.191772 1.9913 0 -0.5 -2.89639 0.015 0 0 -0.346714 0.0353429 
326 1 -0.145564 0.276454 1.97666 0 -0.5 -2.94554 0.025 0 0 -1.60516 0.163625 
424 1 -0.124554 0.392915 1.9705 -0.0730123 -0.390635 -2.97858 0.015 0 0 -0.346714 0.0353429 
319 1 -0.0687817 0.426025 1.9732 0 -0.5 -2.95701 0.025 0 0 -1.60516 0.163625 
433 1 -0.118613 0.132665 2.01045 0 -0.5 -2.83076 0.015 0 0 -0.346714 0.0353429 
420 1 -0.037203 0.140826 2.01323 0 -0.5 -2.82115 0.015 0 0 -0.346714 0.0353429 
402 1 -0.101682 0.176287 2.0159 0 -0.5 -2.81183 0.015 0 0 -0.346714 0.0353429 
306 1 -0.116739 0.354034 2.01502 0 -0.5 -2.81487 0.025 0 0 -1.60516 0.163625 
412 1 -0.0937388 0.424584 2.01938 0 -0.5 -2.79966 0.015 0 0 -0.346714 0.0353429 
322 1 -0.131733 0.163564 2.05567 0 -0.5 -2.66948 0.025 0 0 -1.60516 0.163625 
363 1 -0.0911777 0.253327 2.03317 0 -0.5 -2.75091 0.015 0 0 -0.346714 0.0353429 
360 1 -0.116599 0.277221 2.03197 0 -0.5 -2.75522 0.015 0 0 -0.346714 0.0353429 
396 1 -0.0958984 0.33066 2.05717 0 -0.5 -2.66399 0.015 0 0 -0.346714 0.0353429 
397 1 -0.0557758 0.365618 2.03596 0 -0.5 -2.7409 0.015 0 0 -0.346714 0.0353429 
381 1 -0.0827007 0.399114 2.05324 0 -0.5 -2.67841 0.015 0 0 -0.346714 0.0353429 
371 1 -0.0449321 0.404104 2.03072 0 -0.5 -2.75964 0.015 0 0 -0.346714 0.0353429 
308 1 -0.0765057 0.18121 2.08055 -0.0168546 -0.516386 -2.57385 0.025 0 0 -1.60516 0.163625 
398 1 -0.0301107 0.229611 2.06852 0.308366 -0.162474 -2.67335 0.015 0 0 -0.346714 0.0353429 
438 1 -0.0987495 0.262333 2.08162 0 -0.5 -2.57236 0.015 0 0 -0.346714 0.0353429 
373 1 -0.136858 0.310184 2.06221 0 -0.5 -2.64535 0.015 0 0 -0.346714 0.0353429 
356 1 -0.111476 0.305564 2.08655 0 -0.5 -2.55343 0.015 0 0 -0.346714 0.0353429 
369 1 -0.138958 0.368563 2.06421 0 -0.5 -2.6379 0.015 0 0 -0.346714 0.0353429 
383 1 -0.0262689 0.386803 2.06498 0 -0.5 -2.63505 0.015 0 0 -0.346714 0.0353429 
340 1 -0.149237 0.433237 2.0862 0 -0.5 -2.5548 0.025 0 0 -1.60516 0.163625 
415 1 -0.127182 0.21413 2.09601 0 -0.5 -2.51684 0.015 0 0 -0.346714 0.0353429 
343 1 -0.140775 0.272899 2.10096 0 -0.5 -2.49751 0.025 0 0 -1.60516 0.163625 
443 1 -0.0906469 0.360658 2.0946 0 -0.5 -2.52233 0.015 0 0 -0.346714 0.0353429 
351 1 -0.0409452 0.391112 2.10695 0 -0.5 -2.47387 0.015 0 0 -0.346714 0.0353429 
349 1 -0.116564 0.392594 2.10372 0 -0.5 -2.48663 0.025 0 0 -1.60516 0.163625 
390 1 -0.0988461 0.17459 2.12192 0 -0.5 -2.41374 0.015 0 0 -0.346714 0.0353429 
448 1 -0.0329565 0.18357 2.13703 0 -0.5 -2.35154 0.015 0 0 -0.346714 0.0353429 
347 1 -0.0548177 0.22089 2.14092 0 -0.5 -2.33526 0.025 0 0 -1.60516 0.163625 
378 1 -0.121409 0.269198 2.14545 0 -0.5 -2.31613 0.015 0 0 -0.346714 0.0353429 
312 1 -0.134707 0.328718 2.14621 0 -0.5 -2.31299 0.025 0 0 -1.60516 0.163625 
417 1 -0.0160313 0.428054 2.14619 0 -0.5 -2.31299 0.015 0 0 -0.346714 0.0353429 
419 1 -0.111609 0.165519 2.15755 0 -0.5 -2.26433 0.015 0 0 -0.346714 0.0353429 
362 1 -0.0154426 0.215609 2.15563 0 -0.5 -2.27257 0.015 0 0 -0.346714 0.0353429 
421 1 -0.0930175 0.245542 2.16694 0 -0.5 -2.22332 0.015 0 0 -0.346714 0.0353429 
359 1 -0.107325 0.373399 2.15117 0 -0.5 -2.2918 0.015 0 0 -0.346714 0.0353429 
365 1 -0.146266 0.408681 2.17524 0.0322739 -0.84426 -2.03614 0.015 0 0 -0.346714 0.0353429 
303 1 -0.0551599 0.392479 2.15592 0 -0.5 -2.27139 0.025 0 0 -1.60516 0.163625 
346 1 -0.150311 0.453253 2.15012 -0.0151472 -0.325165 -2.37142 0.025 0 0 -1.60516 0.163625 
334 1 -0.103439 0.428448 2.16294 0 -0.5 -2.24088 0.025 0 0 -1.60516 0.163625 
309 1 -0.144284 0.204031 2.21003 0 -0.5 -2.02428 0.025 0 0 -1.60516 0.163625 
320 1 -0.0648735 0.204929 2.20014 0 -0.5 -2.07156 0.025 0 0 -1.60516 0.163625 
325 1 -0.117824 0.289025 2.19095 0 -0.5 -2.11473 0.025 0 0 -1.60516 0.163625 
372 1 -0.0702168 0.388237 2.20362 0 -0.5 -2.05508 0.015 0 0 -0.346714 0.0353429 
447 1 -0.122284 0.469789 2.20071 0 -0.5 -2.06892 0.015 0 0 -0.346714 0.0353429 
338 1 -0.0583644 0.457556 2.21123 0 -0.5 -2.01839 0.025 0 0 -1.60516 0.163625 
379 1 -0.0327871 0.203074 2.22803 -0 0 -2 0.015 0 0 0 0.0353429 
430 1 -0.123083 0.250988 2.21662 -0 0 -2 0.015 0 0 0 0.0353429 
403 1 -0.0833248 0.256507 2.21857 -0 0 -2 0.015 0 0 0 0.0353429 
387 1 -0.0901615 0.366452 2.21217 0 -0.5 -2.01388 0.015 0 0 -0.346714 0.0353429 
393 1 -0.015571 0.425619 2.22566 -0 0 -2 0.015 0 0 0 0.0353429 
316 1 -0.0983119 0.181261 2.25041 -0 0 -2 0.025 0 0 0 0.163625 
364 1 -0.0453235 0.209912 2.25859 -0 0 -2 0.015 0 0 0 0.0353429 
321 1 -0.126579 0.250186 2.25926 -0 0 -2 0.025 0 0 0 0.163625 
357 1 -0.0584785 0.247404 2.24625 -0 0 -2 0.015 0 0 0 0.0353429 
410 1 -0.145474 0.298701 2.26235 -0 0 -2 0.015 0 0 0 0.0353429 
333 1 -0.0978849 0.312107 2.25992 -0 0 -2 0.025 0 0 0 0.163625 
380 1 -0.127355 0.355901 2.25531 -0 0 -2 0.015 0 0 0 0.0353429 
337 1 -0.142368 0.393123 2.26988 -0 0 -2 0.025 0 0 0 0.163625 
301 1 -0.0884221 0.421264 2.25136 -0 0 -2 0.025 0 0 0 0.163625 
428 1 -0.0387226 0.430102 2.25462 -0 0 -2 0.015 0 0 0 0.0353429 
329 1 -0.123479 0.457221 2.24885 -0 0 -2 0.025 0 0 0 0.163625 
450 1 -0.0322061 0.474788 2.25545 -0 0 -2 0.015 0 0 0 0.0353429 
332 1 -0.0814262 0.231721 2.29718 -0 0 -2 0.025 0 0 0 0.163625 
400 1 -0.135353 0.274705 2.29982 -0 0 -2 0.015 0 0 0 0.0353429 
425 1 -0.074083 0.175677 2.30745 -0 0 -2 0.015 0 0 0 0.0353429 
404 1 -0.119976 0.192749 2.32339 -0 0 -2 0.015 0 0 0 0.0353429 
311 1 -0.0354402 0.189328 2.31516 -0 0 -2 0.025 0 0 0 0.163625 
345 1 -0.128178 0.236209 2.32086 -0 0 -2 0.025 0 0 0 0.163625 
435 1 -0.0960728 0.272801 2.32372 -0 0 -2 0.015 0 0 0 0.0353429 
317 1 -0.129905 0.313645 2.31265 -0 0 -2 0.025 0 0 0 0.163625 
366 1 -0.144217 0.391047 2.31091 -0 0 -2 0.015 0 0 0 0.0353429 
339 1 -0.0802774 0.437645 2.30707 -0 0 -2 0.025 0 0 0 0.163625 
405 1 -0.038992 0.42438 2.31504 -0 0 -2 0.015 0 0 0 0.0353429 
305 1 -0.0452536 0.474362 2.30745 -0 0 -2 0.025 0 0 0 0.163625 
444 1 -0.0159467 0.465681 2.3356 -0 0 -2 0.015 0 0 0 0.0353429 
289 1 0.102712 0.22086 -0.454294 0.0203384 -0.134604 -7.62679 0.015 0 0 -0.346714 0.0353429 
284 1 0.0642793 -0.102008 -0.282791 -0.0310215 -0.613333 -7.32151 0.015 0 0 -0.346714 0.0353429 
199 1 0.0893695 0.0975479 -0.24678 -0.00278668 -0.321029 -7.29845 0.025 0 0 -1.60516 0.163625 
203 1 0.0667127 -0.0887672 -0.225007 0 -0.5 -7.20229 0.015 0 0 -0.346714 0.0353429 
206 1 0.109936 -0.0664383 -0.234307 0.057048 -0.582454 -7.24597 0.015 0 0 -0.346714 0.0353429 
213 1 0.0350777 0.15057 -0.224804 0 -0.5 -7.202 0.015 0 0 -0.346714 0.0353429 
272 1 0.0168276 0.185548 -0.231418 0 -0.5 -7.21102 0.015 0 0 -0.346714 0.0353429 
259 1 0.149131 -0.0481735 -0.189263 0 -0.5 -7.15344 0.015 0 0 -0.346714 0.0353429 
237 1 0.142298 -0.0190375 -0.193783 0.0724848 -0.475593 -7.15097 0.015 0 0 -0.346714 0.0353429 
171 1 0.0976982 0.114189 -0.193057 0.0549768 -0.472606 -7.22728 0.025 0 0 -1.60516 0.163625 
214 1 0.144386 0.0977332 -0.211636 0 -0.5 -7.18405 0.015 0 0 -0.346714 0.0353429 
226 1 0.110692 0.159304 -0.197131 0 -0.5 -7.16423 0.015 0 0 -0.346714 0.0353429 
241 1 0.0849537 0.181018 -0.205239 0 -0.5 -7.17531 0.015 0 0 -0.346714 0.0353429 
263 1 0.025742 -0.0275063 -0.172561 0 -0.5 -7.13048 0.015 0 0 -0.346714 0.0353429 
220 1 0.00547191 -0.0822981 -0.131632 -0.0669262 -0.554313 -7.06827 0.015 0 0 -0.346714 0.0353429 
116 1 0.0786046 0.105884 -0.14701 0.110827 -0.413989 -6.85078 0.015 0 0 -0.346714 0.0353429 
177 1 0.179651 0.102441 -0.135266 0.112606 -0.398162 -7.08328 0.025 0 0 -1.60516 0.163625 
290 1 0.158188 0.178981 -0.0698908 0.0439512 -0.299137 -6.95692 0.015 0 0 -0.346714 0.0353429 
166 1 0.0609489 0.215253 -0.0761262 0 -0.5 -6.99658 0.025 0 0 -1.60516 0.163625 
184 1 0.11251 0.213841 -0.0846099 0 -0.5 -7.00845 0.025 0 0 -1.60516 0.163625 
270 1 0.0946744 0.143669 -0.0344012 0 -0.5 -6.93781 0.015 0 0 -0.346714 0.0353429 
249 1 0.0491797 0.151421 -0.0526872 0 -0.5 -6.96361 0.015 0 0 -0.346714 0.0353429 
222 1 0.123753 -0.0463386 -0.00687439 0 -0.5 -6.89877 0.015 0 0 -0.346714 0.0353429 
294 1 0.128315 0.176152 -0.0126679 0 -0.5 -6.90701 0.015 0 0 -0.346714 0.0353429 
216 1 0.0989618 -0.072956 0.00761632 0.0481324 -0.610657 -6.86065 0.015 0 0 -0.346714 0.0353429 
170 1 0.210981 0.161064 0.0212838 0.161731 -0.381986 -6.87035 0.025 0 0 -1.60516 0.163625 
180 1 0.0347134 -0.0315218 0.0474641 -0.021889 -0.504465 -6.81606 0.025 0 0 -1.60516 0.163625 
253 1 0.123075 0.0610692 0.0500563 0 -0.5 -6.81735 0.015 0 0 -0.346714 0.0353429 
231 1 0.0350342 0.17362 0.0422163 0 -0.5 -6.82863 0.015 0 0 -0.346714 0.0353429 
169 1 0.0892107 0.182668 0.0729808 0 -0.5 -6.78429 0.025 0 0 -1.60516 0.163625 
209 1 0.0969746 -0.0507524 0.112631 0 -0.5 -6.7267 0.015 0 0 -0.346714 0.0353429 
278 1 0.113612 0.0839651 0.159608 0 -0.5 -6.65784 0.015 0 0 -0.346714 0.0353429 
296 1 0.146983 0.065001 0.162138 0 -0.5 -6.65411 0.015 0 0 -0.346714 0.0353429 
257 1 0.139837 0.196641 0.160282 0 -0.5 -6.65686 0.015 0 0 -0.346714 0.0353429 
162 1 0.0478022 0.186457 0.204659 0 -0.5 -6.59113 0.025 0 0 -1.60516 0.163625 
235 1 0.134937 -0.0476153 0.232314 0 -0.5 -6.54983 0.015 0 0 -0.346714 0.0353429 
168 1 0.0261487 -0.0138963 0.215653 0 -0.5 -6.57475 0.025 0 0 -1.60516 0.163625 
269 1 0.141487 -0.0184957 0.211701 0 -0.5 -6.58063 0.015 0 0 -0.346714 0.0353429 
217 1 0.133752 0.0316912 0.230221 0 -0.5 -6.55297 0.015 0 0 -0.346714 0.0353429 
182 1 0.114565 0.141779 0.224979 0 -0.5 -6.56082 0.025 0 0 -1.60516 0.163625 
176 1 0.0399362 0.238472 0.230343 0 -0.5 -6.55277 0.025 0 0 -1.60516 0.163625 
286 1 0.147755 0.23087 0.228778 0 -0.5 -6.55513 0.015 0 0 -0.346714 0.0353429 
185 1 0.0936576 0.0306661 0.241812 0 -0.5 -6.5356 0.025 0 0 -1.60516 0.163625 
153 1 0.0895866 -0.0532402 0.27617 0 -0.5 -6.48381 0.025 0 0 -1.60516 0.163625 
251 1 0.126174 0.0995588 0.294028 0 -0.5 -6.45673 0.015 0 0 -0.346714 0.0353429 
211 1 0.0694768 0.0049716 0.303386 0 -0.5 -6.44251 0.015 0 0 -0.346714 0.0353429 
291 1 0.140432 0.175523 0.32401 0 -0.5 -6.41102 0.015 0 0 -0.346714 0.0353429 
159 1 0.087245 0.234208 0.325875 0 -0.5 -6.40817 0.025 0 0 -1.60516 0.163625 
204 1 0.134881 -0.00675186 0.357912 0 -0.5 -6.35893 0.015 0 0 -0.346714 0.0353429 
161 1 0.135356 0.0508496 0.35646 0 -0.5 -6.36118 0.025 0 0 -1.60516 0.163625 
300 1 0.149285 0.22824 0.343785 0 -0.5 -6.3807 0.015 0 0 -0.346714 0.0353429 
230 1 0.118982 0.0913718 0.381068 0 -0.5 -6.32312 0.015 0 0 -0.346714 0.0353429 
228 1 0.0279693 0.200593 0.367643 0 -0.5 -6.34392 0.015 0 0 -0.346714 0.0353429 
175 1 0.0941494 -0.0139412 0.408412 0 -0.5 -6.28054 0.025 0 0 -1.60516 0.163625 
192 1 0.134392 0.149049 0.442312 0 -0.5 -6.22737 0.025 0 0 -1.60516 0.163625 
285 1 0.0870748 0.186259 0.444674 0 -0.5 -6.22365 0.015 0 0 -0.346714 0.0353429 
256 1 0.0868225 0.218057 0.436943 0 -0.5 -6.23581 0.015 0 0 -0.346714 0.0353429 
250 1 0.138716 0.232193 0.4332 0 -0.5 -6.2417 0.015 0 0 -0.346714 0.0353429 
246 1 0.0494565 0.25301 0.445733 0 -0.5 -6.22198 0.015 0 0 -0.346714 0.0353429 
240 1 0.0956629 0.24988 0.449089 0 -0.5 -6.21668 0.015 0 0 -0.346714 0.0353429 
299 1 0.0153001 0.00954122 0.467198 0 -0.5 -6.18804 0.015 0 0 -0.346714 0.0353429 
293 1 0.0548164 0.0251452 0.455928 0 -0.5 -6.20589 0.015 0 0 -0.346714 0.0353429 
275 1 0.0211058 0.232962 0.464717 0 -0.5 -6.19196 0.015 0 0 -0.346714 0.0353429 
202 1 0.126943 -0.0158811 0.508741 0 -0.5 -6.12182 0.015 0 0 -0.346714 0.0353429 
200 1 0.112803 0.042149 0.490533 0 -0.5 -6.15095 0.025 0 0 -1.60516 0.163625 
255 1 0.0340792 0.200865 0.499423 0 -0.5 -6.13673 0.015 0 0 -0.346714 0.0353429 
252 1 0.131256 0.209424 0.499429 0 -0.5 -6.13673 0.015 0 0 -0.346714 0.0353429 
245 1 0.0868358 0.00971466 0.524258 0 -0.5 -6.0969 0.015 0 0 -0.346714 0.0353429 
189 1 0.0509787 -0.016488 0.558865 0 -0.5 -6.04098 0.025 0 0 -1.60516 0.163625 
247 1 0.0532922 0.0375654 0.549417 0 -0.5 -6.05629 0.015 0 0 -0.346714 0.0353429 