ITEM: TIMESTEP
96000
ITEM: NUMBER OF ATOMS
1200
ITEM: BOX BOUNDS mm mm mm
-1 1
-1 1
-4.47348 2.85
ITEM: ATOMS id type x y z vx vy vz radius fx fy fz mass 
68 1 -0.0997213 -0.234729 -4.12326 0 -0.5 -11.3295 0.015 0 0 -0.346714 0.0353429 
137 1 -0.0940673 -0.175398 -4.09632 -0.00924354 -0.479856 -11.3066 0.015 0 0 -0.346714 0.0353429 
45 1 -0.0943793 -0.283762 -4.06471 0 -0.5 -11.2786 0.025 0 0 -1.60516 0.163625 
122 1 -0.0652207 -0.237585 -4.06331 0.00811842 -0.517403 -11.277 0.015 0 0 -0.346714 0.0353429 
33 1 -0.129286 -0.0433953 -4.07723 0 -0.5 -11.2895 0.025 0 0 -1.60516 0.163625 
43 1 -0.116198 -0.132215 -4.02124 0 -0.5 -11.2408 0.025 0 0 -1.60516 0.163625 
119 1 -0.0370509 -0.294811 -4.00405 0 -0.5 -11.2258 0.015 0 0 -0.346714 0.0353429 
111 1 -0.0487783 0.000100039 -4.02001 0 -0.5 -11.2397 0.015 0 0 -0.346714 0.0353429 
75 1 -0.0493142 -0.244328 -3.9683 0 -0.5 -11.1945 0.015 0 0 -0.346714 0.0353429 
78 1 -0.0422369 -0.0360449 -3.98801 0 -0.5 -11.2117 0.015 0 0 -0.346714 0.0353429 
89 1 -0.129145 -0.215692 -3.95509 0 -0.5 -11.1829 0.015 0 0 -0.346714 0.0353429 
220 1 -0.0223694 -0.312892 -3.92087 -0.0669262 -0.554313 -11.1492 0.015 0 0 -0.346714 0.0353429 
59 1 -0.0865612 -0.0871322 -3.92583 0 -0.5 -11.1572 0.015 0 0 -0.346714 0.0353429 
92 1 -0.131017 0.00732718 -3.89484 0 -0.5 -11.1299 0.015 0 0 -0.346714 0.0353429 
98 1 -0.147127 -0.143558 -3.77996 0 -0.5 -11.0282 0.015 0 0 -0.346714 0.0353429 
151 1 -0.0686397 -0.061473 -3.78116 0 -0.5 -11.0293 0.015 0 0 -0.346714 0.0353429 
8 1 -0.104188 -0.276537 -3.74517 0 -0.5 -10.9972 0.025 0 0 -1.60516 0.163625 
3 1 -0.141317 -0.0786121 -3.72921 0 -0.5 -10.983 0.025 0 0 -1.60516 0.163625 
72 1 -0.105673 -0.041204 -3.70168 0 -0.5 -10.9583 0.015 0 0 -0.346714 0.0353429 
100 1 -0.0681017 -0.208079 -3.66196 0 -0.5 -10.9227 0.015 0 0 -0.346714 0.0353429 
140 1 -0.125739 -0.166444 -3.67191 0 -0.5 -10.9317 0.015 0 0 -0.346714 0.0353429 
40 1 -0.104474 0.0101982 -3.66962 0 -0.5 -10.9296 0.025 0 0 -1.60516 0.163625 
118 1 -0.0372647 -0.00631894 -3.65148 0 -0.5 -10.9133 0.015 0 0 -0.346714 0.0353429 
117 1 -0.0596227 -0.264979 -3.62075 0 -0.5 -10.8857 0.015 0 0 -0.346714 0.0353429 
148 1 -0.259846 -0.0756012 -3.62368 -0.171679 -0.397353 -10.935 0.015 0 0 -0.346714 0.0353429 
51 1 -0.172534 -0.261076 -3.56702 -0.0265052 -0.519812 -10.8337 0.025 0 0 -1.60516 0.163625 
282 1 -0.135547 -0.282355 -3.55297 -0.2609 -0.673185 -10.8136 0.015 0 0 -0.346714 0.0353429 
11 1 -0.0873394 -0.0742371 -3.48461 0.022917 -0.457889 -10.7725 0.025 0 0 -1.60516 0.163625 
90 1 -0.146535 0.0116669 -3.50365 0 -0.5 -10.7796 0.015 0 0 -0.346714 0.0353429 
60 1 -0.0770515 -0.256072 -3.46384 0 -0.5 -10.7433 0.015 0 0 -0.346714 0.0353429 
50 1 -0.130982 -0.0316451 -3.46093 0 -0.5 -10.7407 0.025 0 0 -1.60516 0.163625 
74 1 -0.0790012 -0.0441066 -3.39527 0 -0.5 -10.6805 0.015 0 0 -0.346714 0.0353429 
105 1 -0.362885 -0.0350016 -3.37519 -0.321192 -0.368687 -10.6562 0.015 0 0 -0.346714 0.0353429 
76 1 -0.0202065 -0.01593 -3.3653 0 -0.5 -10.653 0.015 0 0 -0.346714 0.0353429 
44 1 -0.125916 -0.264403 -3.3453 0 -0.5 -10.6345 0.025 0 0 -1.60516 0.163625 
36 1 -0.103411 -0.217688 -3.30475 0 -0.5 -10.597 0.025 0 0 -1.60516 0.163625 
29 1 -0.0788351 -0.0018179 -3.31609 0 -0.5 -10.6075 0.025 0 0 -1.60516 0.163625 
54 1 -0.208612 -0.198457 -3.25749 -0.0956439 -0.529683 -10.5457 0.015 0 0 -0.346714 0.0353429 
114 1 -0.0722388 -0.187368 -3.23767 -0.00040144 -0.499666 -10.5348 0.015 0 0 -0.346714 0.0353429 
73 1 -0.0639552 -0.238233 -3.18026 0 -0.5 -10.4812 0.015 0 0 -0.346714 0.0353429 
113 1 -0.118506 0.0331977 -3.19234 0 -0.5 -10.4925 0.015 0 0 -0.346714 0.0353429 
2 1 -0.110349 -0.0909288 -3.16938 0 -0.5 -10.471 0.025 0 0 -1.60516 0.163625 
146 1 -0.109965 -0.251084 -3.1377 0 -0.5 -10.4413 0.015 0 0 -0.346714 0.0353429 
12 1 -0.0363281 0.0183359 -3.14061 0 -0.5 -10.444 0.025 0 0 -1.60516 0.163625 
57 1 -0.120673 -0.134939 -3.08604 0 -0.5 -10.3926 0.015 0 0 -0.346714 0.0353429 
88 1 -0.0666498 -0.0240815 -3.10693 0 -0.5 -10.4123 0.015 0 0 -0.346714 0.0353429 
99 1 -0.146283 -0.186483 -3.06163 0 -0.5 -10.3695 0.015 0 0 -0.346714 0.0353429 
10 1 -0.0421243 0.0347936 -3.07306 0.0635655 -0.375939 -10.4262 0.025 0 0 -1.60516 0.163625 
83 1 -0.108229 -0.156854 -2.99413 0 -0.5 -10.3055 0.015 0 0 -0.346714 0.0353429 
34 1 -0.138562 -0.017489 -3.00516 0 -0.5 -10.316 0.025 0 0 -1.60516 0.163625 
66 1 -0.0281121 -0.199177 -2.97909 0 -0.5 -10.2912 0.015 0 0 -0.346714 0.0353429 
19 1 -0.0715757 -0.176748 -2.98682 0 -0.5 -10.2985 0.025 0 0 -1.60516 0.163625 
71 1 -0.145263 0.0261975 -2.96294 0 -0.5 -10.2758 0.015 0 0 -0.346714 0.0353429 
81 1 -0.00684283 0.0196713 -2.9452 0.07636 -0.438847 -10.2387 0.015 0 0 -0.346714 0.0353429 
67 1 -0.0183057 -0.243611 -2.92838 0 -0.5 -10.2427 0.015 0 0 -0.346714 0.0353429 
24 1 -0.138394 -0.216548 -2.90352 0 -0.5 -10.2189 0.025 0 0 -1.60516 0.163625 
133 1 -0.127566 -0.100056 -2.88595 0 -0.5 -10.202 0.015 0 0 -0.346714 0.0353429 
95 1 -0.10482 -0.0126878 -2.87892 0 -0.5 -10.1952 0.015 0 0 -0.346714 0.0353429 
39 1 -0.0696793 0.03701 -2.8787 0 -0.5 -10.195 0.025 0 0 -1.60516 0.163625 
103 1 -0.135939 -0.172278 -2.82928 0 -0.5 -10.1474 0.015 0 0 -0.346714 0.0353429 
143 1 -0.11631 0.0456819 -2.81174 0 -0.5 -10.1304 0.015 0 0 -0.346714 0.0353429 
70 1 -0.107191 -0.190076 -2.80466 0 -0.5 -10.1235 0.015 0 0 -0.346714 0.0353429 
28 1 -0.0685748 -0.21393 -2.75405 0 -0.5 -10.0744 0.025 0 0 -1.60516 0.163625 
97 1 -0.0338223 -0.186856 -2.7722 0 -0.5 -10.092 0.015 0 0 -0.346714 0.0353429 
115 1 -0.076478 -0.151569 -2.77139 0 -0.5 -10.0912 0.015 0 0 -0.346714 0.0353429 
85 1 -0.13789 -0.0299848 -2.76655 0 -0.5 -10.0865 0.015 0 0 -0.346714 0.0353429 
134 1 -0.137197 0.0103666 -2.73423 0 -0.5 -10.055 0.015 0 0 -0.346714 0.0353429 
77 1 -0.0297287 0.0387485 -2.72007 0 -0.5 -10.0412 0.015 0 0 -0.346714 0.0353429 
126 1 -0.134921 -0.121762 -2.70067 -0.0288748 -0.539424 -10.0099 0.015 0 0 -0.346714 0.0353429 
120 1 -0.148569 0.0592607 -2.71604 0 -0.5 -10.0373 0.015 0 0 -0.346714 0.0353429 
96 1 -0.131998 -0.186919 -2.68107 0 -0.5 -10.003 0.015 0 0 -0.346714 0.0353429 
38 1 -0.121616 -0.145812 -2.64024 0 -0.5 -9.96292 0.025 0 0 -1.60516 0.163625 
23 1 -0.134189 -0.00948098 -2.56589 0 -0.5 -9.88945 0.025 0 0 -1.60516 0.163625 
130 1 -0.0642546 -0.151559 -2.56412 0 -0.5 -9.88768 0.015 0 0 -0.346714 0.0353429 
150 1 -0.100106 -0.174793 -2.51962 0 -0.5 -9.84344 0.015 0 0 -0.346714 0.0353429 
18 1 -0.106015 0.055686 -2.51717 0 -0.5 -9.84099 0.025 0 0 -1.60516 0.163625 
4 1 -0.0330873 0.0688569 -2.51873 0 -0.5 -9.84256 0.025 0 0 -1.60516 0.163625 
106 1 -0.179427 0.266272 -2.52537 -0.0998962 -0.230395 -9.92353 0.015 0 0 -0.346714 0.0353429 
31 1 -0.140814 -0.209123 -2.49092 0 -0.5 -9.81479 0.025 0 0 -1.60516 0.163625 
110 1 -0.0868918 -0.219583 -2.43914 0 -0.5 -9.7629 0.015 0 0 -0.346714 0.0353429 
93 1 -0.0244706 -0.207842 -2.41291 0 -0.5 -9.73651 0.015 0 0 -0.346714 0.0353429 
17 1 -0.134634 -0.0939735 -2.39968 0 -0.5 -9.72317 0.025 0 0 -1.60516 0.163625 
136 1 -0.0832352 -0.000992358 -2.4061 0 -0.5 -9.72964 0.015 0 0 -0.346714 0.0353429 
30 1 -0.0481876 0.0268572 -2.39083 0 -0.5 -9.71424 0.025 0 0 -1.60516 0.163625 
109 1 -0.0676248 0.0740796 -2.39288 0 -0.5 -9.7163 0.015 0 0 -0.346714 0.0353429 
1 1 -0.158335 0.401724 -2.37881 -0.021394 -0.0706631 -9.78849 0.025 0 0 -1.60516 0.163625 
108 1 -0.089121 -0.187176 -2.31102 0 -0.5 -9.63331 0.015 0 0 -0.346714 0.0353429 
69 1 -0.020474 -0.166917 -2.26826 0 -0.5 -9.58965 0.015 0 0 -0.346714 0.0353429 
35 1 -0.146938 0.00679203 -2.25552 0 -0.5 -9.57661 0.025 0 0 -1.60516 0.163625 
22 1 -0.102489 -0.0616935 -2.20631 0 -0.5 -9.52608 0.025 0 0 -1.60516 0.163625 
102 1 -0.11709 -0.187101 -2.19631 0 -0.5 -9.51578 0.015 0 0 -0.346714 0.0353429 
14 1 -0.0571303 -0.195025 -2.1757 0 -0.5 -9.4945 0.025 0 0 -1.60516 0.163625 
139 1 -0.104092 -0.129428 -2.19661 0 -0.5 -9.51608 0.015 0 0 -0.346714 0.0353429 
144 1 -0.0691235 -0.126526 -2.19841 0 -0.5 -9.51794 0.015 0 0 -0.346714 0.0353429 
141 1 -0.136875 -0.113736 -2.14754 0 -0.5 -9.46536 0.015 0 0 -0.346714 0.0353429 
55 1 -0.0960028 0.0444079 -2.1667 -7.52477e-06 -0.49998 -9.48521 0.015 0 0 -0.346714 0.0353429 
21 1 -0.0470047 0.0894999 -2.11976 0 -0.5 -9.43652 0.025 0 0 -1.60516 0.163625 
94 1 -0.38022 0.144378 -2.11745 -0.356499 -0.190573 -9.47275 0.015 0 0 -0.346714 0.0353429 
87 1 -0.113676 0.00758757 -2.09158 0 -0.5 -9.40719 0.015 0 0 -0.346714 0.0353429 
107 1 -0.141609 -0.198052 -2.0412 0 -0.5 -9.35451 0.015 0 0 -0.346714 0.0353429 
112 1 -0.073338 -0.114721 -1.9913 0 -0.5 -9.30202 0.015 0 0 -0.346714 0.0353429 
84 1 -0.116406 -0.0342137 -1.9979 0 -0.5 -9.30899 0.015 0 0 -0.346714 0.0353429 
147 1 -0.100309 0.0774308 -2.01095 0 -0.5 -9.32272 0.015 0 0 -0.346714 0.0353429 
142 1 -0.0724928 -0.173252 -1.94991 0 -0.5 -9.25827 0.015 0 0 -0.346714 0.0353429 
47 1 -0.140465 0.0494497 -1.94973 0 -0.5 -9.25808 0.025 0 0 -1.60516 0.163625 
145 1 -0.0934491 0.0421128 -1.94583 0 -0.5 -9.25396 0.015 0 0 -0.346714 0.0353429 
6 1 -0.035388 -0.0995308 -1.90811 0.101461 -0.428163 -9.21745 0.025 0 0 -1.60516 0.163625 
80 1 -0.102893 0.0128925 -1.91553 0 -0.5 -9.22178 0.015 0 0 -0.346714 0.0353429 
32 1 -0.194346 -0.209318 -1.85427 -0.0613285 -0.540948 -9.15451 0.025 0 0 -1.60516 0.163625 
135 1 -0.140472 -0.105107 -1.85994 0 -0.5 -9.16243 0.015 0 0 -0.346714 0.0353429 
62 1 -0.0849655 0.102406 -1.86047 0 -0.5 -9.16302 0.015 0 0 -0.346714 0.0353429 
280 1 -0.19122 0.427247 -1.86433 -0.323138 -0.0374805 -9.2251 0.015 0 0 -0.346714 0.0353429 
138 1 -0.0317395 -0.170684 -1.82337 0 -0.5 -9.12319 0.015 0 0 -0.346714 0.0353429 
128 1 -0.145291 -0.0203232 -1.82016 0 -0.5 -9.11975 0.015 0 0 -0.346714 0.0353429 
15 1 -0.0615903 0.0182979 -1.83051 0.0430154 -0.390763 -9.11025 0.025 0 0 -1.60516 0.163625 
121 1 -0.0679495 0.0840779 -1.78149 0 -0.5 -9.07806 0.015 0 0 -0.346714 0.0353429 
129 1 -0.0553418 -0.146801 -1.71027 0 -0.5 -9.00076 0.015 0 0 -0.346714 0.0353429 
101 1 -0.102489 -0.0541755 -1.68977 0 -0.5 -8.97839 0.015 0 0 -0.346714 0.0353429 
37 1 -0.0716655 0.0486653 -1.69085 0 -0.5 -8.97957 0.025 0 0 -1.60516 0.163625 
61 1 -0.0231802 -0.177065 -1.65983 0 -0.5 -8.94563 0.015 0 0 -0.346714 0.0353429 
79 1 -0.0179342 -0.143016 -1.65966 0 -0.5 -8.94543 0.015 0 0 -0.346714 0.0353429 
13 1 -0.146779 -0.0641789 -1.68186 0 -0.5 -8.96976 0.025 0 0 -1.60516 0.163625 
91 1 -0.124131 0.042132 -1.65876 0 -0.5 -8.94445 0.015 0 0 -0.346714 0.0353429 
46 1 -0.032303 0.110569 -1.6807 0 -0.5 -8.96848 0.025 0 0 -1.60516 0.163625 
52 1 -0.100497 -0.16151 -1.64376 0 -0.5 -8.92797 0.015 0 0 -0.346714 0.0353429 
20 1 -0.124339 -0.00611231 -1.62938 0 -0.5 -8.91218 0.025 0 0 -1.60516 0.163625 
5 1 -0.137704 -0.133588 -1.62288 0 -0.5 -8.90501 0.025 0 0 -1.60516 0.163625 
7 1 -0.0712578 -0.0945506 -1.61638 0 -0.5 -8.89785 0.025 0 0 -1.60516 0.163625 
86 1 -0.142939 0.0350587 -1.54781 0 -0.5 -8.82192 0.015 0 0 -0.346714 0.0353429 
9 1 -0.0320364 0.0691587 -1.5411 0 -0.5 -8.81447 0.025 0 0 -1.60516 0.163625 
58 1 -0.0969698 -0.0601093 -1.51383 0 -0.5 -8.78406 0.015 0 0 -0.346714 0.0353429 
124 1 -0.136447 0.0653765 -1.51409 0 -0.5 -8.78435 0.015 0 0 -0.346714 0.0353429 
65 1 -0.147981 -0.156903 -1.48692 0 -0.5 -8.75394 0.015 0 0 -0.346714 0.0353429 
41 1 -0.107908 0.120758 -1.49199 0 -0.5 -8.75963 0.025 0 0 -1.60516 0.163625 
104 1 -0.138444 0.00721706 -1.41364 0 -0.5 -8.67144 0.015 0 0 -0.346714 0.0353429 
131 1 -0.025873 0.10804 -1.4324 0 -0.5 -8.69263 0.015 0 0 -0.346714 0.0353429 
132 1 -0.0234712 -0.123832 -1.37686 0 -0.5 -8.62975 0.015 0 0 -0.346714 0.0353429 
48 1 -0.144727 -0.066148 -1.37843 0 -0.5 -8.63151 0.025 0 0 -1.60516 0.163625 
53 1 -0.106432 -0.0216597 -1.37428 0 -0.5 -8.6268 0.015 0 0 -0.346714 0.0353429 
49 1 -0.0613084 -0.14629 -1.33814 0 -0.5 -8.5856 0.025 0 0 -1.60516 0.163625 
16 1 -0.129915 0.0770792 -1.33204 0 -0.5 -8.57864 0.025 0 0 -1.60516 0.163625 
27 1 -0.0637137 0.103885 -1.33076 0 -0.5 -8.57716 0.025 0 0 -1.60516 0.163625 
82 1 -0.0851821 0.0676269 -1.31961 0 -0.5 -8.56441 0.015 0 0 -0.346714 0.0353429 
63 1 -0.147823 0.133713 -1.30132 0 -0.5 -8.54342 0.015 0 0 -0.346714 0.0353429 
127 1 -0.0304133 -0.100379 -1.26713 0 -0.5 -8.50408 0.015 0 0 -0.346714 0.0353429 
56 1 -0.11556 0.131119 -1.26739 0 -0.5 -8.50437 0.015 0 0 -0.346714 0.0353429 
25 1 -0.104447 -0.112215 -1.24496 0 -0.5 -8.47847 0.025 0 0 -1.60516 0.163625 
42 1 -0.132916 -0.0192044 -1.21671 0 -0.5 -8.44571 0.025 0 0 -1.60516 0.163625 
123 1 -0.11925 0.0374922 -1.20954 0 -0.5 -8.43737 0.015 0 0 -0.346714 0.0353429 
64 1 -0.145219 0.101177 -1.18234 0 -0.5 -8.40568 0.015 0 0 -0.346714 0.0353429 
125 1 -0.0960051 0.0931273 -1.1787 0 -0.5 -8.40147 0.015 0 0 -0.346714 0.0353429 
392 1 -0.0201822 -0.148623 -1.1497 0 -0.5 -8.36752 0.015 0 0 -0.346714 0.0353429 
361 1 -0.0655065 -0.120841 -1.15456 0 -0.5 -8.37321 0.015 0 0 -0.346714 0.0353429 
391 1 -0.0665259 0.0781896 -1.15188 0 -0.5 -8.37007 0.015 0 0 -0.346714 0.0353429 
375 1 -0.132504 -0.0837871 -1.13616 0 -0.5 -8.35163 0.015 0 0 -0.346714 0.0353429 
353 1 -0.0778865 -0.0674899 -1.09885 0 -0.5 -8.30768 0.015 0 0 -0.346714 0.0353429 
423 1 -0.035066 0.0963516 -1.07827 0 -0.5 -8.28335 0.015 0 0 -0.346714 0.0353429 
370 1 -0.0476722 0.150061 -1.09892 0 -0.5 -8.30778 0.015 0 0 -0.346714 0.0353429 
449 1 -0.121601 -0.14303 -1.05371 0 -0.5 -8.25422 0.015 0 0 -0.346714 0.0353429 
432 1 -0.110656 -0.00797721 -1.07505 0 -0.5 -8.27953 0.015 0 0 -0.346714 0.0353429 
348 1 -0.0529335 -0.137539 -1.01834 -0.0150753 -0.514502 -8.21007 0.025 0 0 -1.60516 0.163625 
409 1 -0.1116 -0.0357207 -1.00626 0 -0.5 -8.19761 0.015 0 0 -0.346714 0.0353429 
434 1 -0.110177 0.124235 -1.01043 0 -0.5 -8.20262 0.015 0 0 -0.346714 0.0353429 
304 1 -0.147639 0.0902992 -0.959849 0 -0.5 -8.14189 0.025 0 0 -1.60516 0.163625 
414 1 -0.12165 0.0344124 -0.900596 0 -0.5 -8.07018 0.015 0 0 -0.346714 0.0353429 
327 1 -0.047146 0.127396 -0.910112 0 -0.5 -8.08176 0.025 0 0 -1.60516 0.163625 
368 1 -0.0426125 -0.0978969 -0.869352 0 -0.5 -8.03212 0.015 0 0 -0.346714 0.0353429 
416 1 -0.148865 0.0557519 -0.878514 0 -0.5 -8.0433 0.015 0 0 -0.346714 0.0353429 
422 1 -0.0856494 0.118628 -0.872555 0 -0.5 -8.03604 0.015 0 0 -0.346714 0.0353429 
328 1 -0.101567 -0.0726404 -0.840652 0 -0.5 -7.997 0.025 0 0 -1.60516 0.163625 
342 1 -0.0942786 0.0780065 -0.838505 0 -0.5 -7.99435 0.025 0 0 -1.60516 0.163625 
307 1 -0.141488 -0.103684 -0.820295 0 -0.5 -7.97198 0.025 0 0 -1.60516 0.163625 
441 1 -0.0895132 0.156957 -0.819585 0 -0.5 -7.9711 0.015 0 0 -0.346714 0.0353429 
440 1 -0.074831 -0.121367 -0.796588 0 -0.5 -7.94275 0.015 0 0 -0.346714 0.0353429 
352 1 -0.144025 0.115939 -0.777384 0 -0.5 -7.91901 0.015 0 0 -0.346714 0.0353429 
388 1 -0.0545692 -0.0573145 -0.746744 0 -0.5 -7.88095 0.015 0 0 -0.346714 0.0353429 
323 1 -0.131477 0.0118135 -0.75028 0 -0.5 -7.88536 0.025 0 0 -1.60516 0.163625 
330 1 -0.125578 0.172028 -0.769558 0 -0.5 -7.9093 0.025 0 0 -1.60516 0.163625 
406 1 -0.0920408 0.115666 -0.73194 0 -0.5 -7.86251 0.015 0 0 -0.346714 0.0353429 
418 1 -0.0554251 -0.11106 -0.660806 0 -0.5 -7.77323 0.015 0 0 -0.346714 0.0353429 
318 1 -0.126425 0.0891585 -0.665072 0 -0.5 -7.77863 0.025 0 0 -1.60516 0.163625 
331 1 -0.138106 -0.116169 -0.636973 0 -0.5 -7.74312 0.025 0 0 -1.60516 0.163625 
395 1 -0.110093 -0.0601279 -0.648291 0 -0.5 -7.75744 0.015 0 0 -0.346714 0.0353429 
336 1 -0.025747 0.122523 -0.649852 0 -0.5 -7.7594 0.025 0 0 -1.60516 0.163625 
313 1 -0.0392615 -0.0723105 -0.613015 0 -0.5 -7.71271 0.025 0 0 -1.60516 0.163625 
374 1 -0.133879 0.149467 -0.608788 0 -0.5 -7.70731 0.015 0 0 -0.346714 0.0353429 
315 1 -0.0970947 -0.00559352 -0.57053 0 -0.5 -7.65846 0.025 0 0 -1.60516 0.163625 
407 1 -0.0713596 0.122089 -0.567914 0 -0.5 -7.65512 0.015 0 0 -0.346714 0.0353429 
310 1 -0.0919271 0.159993 -0.57581 0 -0.5 -7.66523 0.025 0 0 -1.60516 0.163625 
445 1 -0.0938501 0.0646432 -0.542252 0 -0.5 -7.62216 0.015 0 0 -0.346714 0.0353429 
377 1 -0.128279 -0.0882797 -0.499641 0 -0.5 -7.56713 0.015 0 0 -0.346714 0.0353429 
386 1 -0.118095 0.13311 -0.506923 0 -0.5 -7.57654 0.015 0 0 -0.346714 0.0353429 
344 1 -0.147144 0.0654448 -0.470069 0 -0.5 -7.52867 0.025 0 0 -1.60516 0.163625 
401 1 -0.0913429 -0.0592196 -0.439053 0 -0.5 -7.48816 0.015 0 0 -0.346714 0.0353429 
439 1 -0.132801 0.0278967 -0.4446 0 -0.5 -7.49541 0.015 0 0 -0.346714 0.0353429 
302 1 -0.0567477 -0.0906837 -0.435388 0 -0.5 -7.48335 0.025 0 0 -1.60516 0.163625 
314 1 -0.136534 -0.0227638 -0.418799 0 -0.5 -7.46157 0.025 0 0 -1.60516 0.163625 
355 1 -0.0483468 -0.0432415 -0.379462 0 -0.5 -7.40968 0.015 0 0 -0.346714 0.0353429 
413 1 -0.0512121 0.126816 -0.39089 0 -0.5 -7.42478 0.015 0 0 -0.346714 0.0353429 
442 1 -0.149932 0.186171 -0.388428 0 -0.5 -7.42155 0.015 0 0 -0.346714 0.0353429 
431 1 -0.13363 -0.0623494 -0.365919 0 -0.5 -7.39172 0.015 0 0 -0.346714 0.0353429 
354 1 -0.0927402 0.125498 -0.368875 0 -0.5 -7.39565 0.015 0 0 -0.346714 0.0353429 
408 1 -0.087028 0.194439 -0.371612 0 -0.5 -7.39928 0.015 0 0 -0.346714 0.0353429 
382 1 -0.0976623 0.23385 -0.362894 0.026541 -0.439017 -7.43487 0.015 0 0 -0.346714 0.0353429 
446 1 -0.116317 0.0946265 -0.326075 0 -0.5 -7.33865 0.015 0 0 -0.346714 0.0353429 
427 1 -0.0658982 0.357752 -0.342314 0.0988458 -0.172977 -7.4721 0.015 0 0 -0.346714 0.0353429 
411 1 -0.0485728 0.177056 -0.311336 0 -0.5 -7.31893 0.015 0 0 -0.346714 0.0353429 
350 1 -0.147794 -0.0526051 -0.226096 0 -0.5 -7.20376 0.025 0 0 -1.60516 0.163625 
399 1 -0.074527 -0.0399519 -0.247898 0 -0.5 -7.23339 0.015 0 0 -0.346714 0.0353429 
335 1 -0.126459 0.00841779 -0.226514 0 -0.5 -7.20435 0.025 0 0 -1.60516 0.163625 
436 1 -0.0854574 0.0149506 -0.249128 0 -0.5 -7.23506 0.015 0 0 -0.346714 0.0353429 
341 1 -0.148816 0.128228 -0.244062 0 -0.5 -7.22819 0.025 0 0 -1.60516 0.163625 
389 1 -0.0230912 0.201676 -0.241888 0 -0.5 -7.22525 0.015 0 0 -0.346714 0.0353429 
384 1 -0.213561 0.237947 -0.228083 -0.135564 -0.440896 -7.21819 0.015 0 0 -0.346714 0.0353429 
324 1 -0.0498553 -0.0852968 -0.207749 0 -0.5 -7.17875 0.025 0 0 -1.60516 0.163625 
385 1 -0.0696212 0.137365 -0.213854 0 -0.5 -7.18709 0.015 0 0 -0.346714 0.0353429 
437 1 -0.0723044 -0.00876816 -0.193624 0 -0.5 -7.15942 0.015 0 0 -0.346714 0.0353429 
394 1 -0.145405 0.166684 -0.148936 0 -0.5 -7.09791 0.015 0 0 -0.346714 0.0353429 
367 1 -0.106717 -0.0281692 -0.127551 0 -0.5 -7.06829 0.015 0 0 -0.346714 0.0353429 
426 1 -0.0179373 0.196964 -0.128317 0 -0.5 -7.06937 0.015 0 0 -0.346714 0.0353429 
424 1 -0.154927 0.230411 -0.117425 -0.0730123 -0.390635 -7.05954 0.015 0 0 -0.346714 0.0353429 
319 1 -0.0687817 0.218025 -0.105755 0 -0.5 -7.03797 0.025 0 0 -1.60516 0.163625 
358 1 -0.127277 -0.0612076 -0.100753 0 -0.5 -7.03101 0.015 0 0 -0.346714 0.0353429 
326 1 -0.145564 0.068454 -0.0975187 0 -0.5 -7.0265 0.025 0 0 -1.60516 0.163625 
376 1 -0.0824761 -0.0162283 -0.0624402 0 -0.5 -6.97735 0.015 0 0 -0.346714 0.0353429 
433 1 -0.118613 -0.0753348 -0.0159873 0 -0.5 -6.91172 0.015 0 0 -0.346714 0.0353429 
420 1 -0.037203 -0.0671744 -0.00920676 0 -0.5 -6.90211 0.015 0 0 -0.346714 0.0353429 
402 1 -0.101682 -0.031713 -0.0026592 0 -0.5 -6.89279 0.015 0 0 -0.346714 0.0353429 
306 1 -0.116739 0.146034 -0.0048029 0 -0.5 -6.89583 0.025 0 0 -1.60516 0.163625 
412 1 -0.0937388 0.216584 0.00588067 0 -0.5 -6.88062 0.015 0 0 -0.346714 0.0353429 
363 1 -0.0911777 0.0453271 0.0399523 0 -0.5 -6.83187 0.015 0 0 -0.346714 0.0353429 
360 1 -0.116599 0.0692209 0.0369556 0 -0.5 -6.83618 0.015 0 0 -0.346714 0.0353429 
397 1 -0.0557758 0.157618 0.0469099 0 -0.5 -6.82186 0.015 0 0 -0.346714 0.0353429 
371 1 -0.0449321 0.196104 0.0338691 0 -0.5 -6.8406 0.015 0 0 -0.346714 0.0353429 
322 1 -0.131733 -0.0444363 0.0963225 0 -0.5 -6.75044 0.025 0 0 -1.60516 0.163625 
396 1 -0.0958984 0.12266 0.100108 0 -0.5 -6.74495 0.015 0 0 -0.346714 0.0353429 
381 1 -0.0827007 0.191114 0.0901812 0 -0.5 -6.75937 0.015 0 0 -0.346714 0.0353429 
373 1 -0.136858 0.102184 0.112906 0 -0.5 -6.72631 0.015 0 0 -0.346714 0.0353429 
369 1 -0.138958 0.160563 0.118006 0 -0.5 -6.71886 0.015 0 0 -0.346714 0.0353429 
383 1 -0.0262689 0.178803 0.119964 0 -0.5 -6.71601 0.015 0 0 -0.346714 0.0353429 
308 1 -0.0835172 -0.0336062 0.160988 -0.0168546 -0.516386 -6.65481 0.025 0 0 -1.60516 0.163625 
438 1 -0.0987495 0.0543327 0.162672 0 -0.5 -6.65332 0.015 0 0 -0.346714 0.0353429 
415 1 -0.127182 0.00613005 0.20017 0 -0.5 -6.5978 0.015 0 0 -0.346714 0.0353429 
356 1 -0.111476 0.097564 0.175488 0 -0.5 -6.63439 0.015 0 0 -0.346714 0.0353429 
443 1 -0.0906469 0.152658 0.196465 0 -0.5 -6.60329 0.015 0 0 -0.346714 0.0353429 
340 1 -0.149237 0.225237 0.174563 0 -0.5 -6.63576 0.025 0 0 -1.60516 0.163625 
343 1 -0.140775 0.0648986 0.213156 0 -0.5 -6.57847 0.025 0 0 -1.60516 0.163625 
349 1 -0.116564 0.184594 0.220448 0 -0.5 -6.56759 0.025 0 0 -1.60516 0.163625 
351 1 -0.0409452 0.183112 0.228975 0 -0.5 -6.55483 0.015 0 0 -0.346714 0.0353429 
390 1 -0.0988461 -0.0334101 0.268965 0 -0.5 -6.4947 0.015 0 0 -0.346714 0.0353429 
539 1 -0.0296386 0.478454 0.265719 -0.32393 0.0458257 -6.58966 0.015 0 0 -0.346714 0.0353429 
448 1 -0.0329565 -0.02443 0.309944 0 -0.5 -6.4325 0.015 0 0 -0.346714 0.0353429 
347 1 -0.0548177 0.01289 0.320612 0 -0.5 -6.41622 0.025 0 0 -1.60516 0.163625 
346 1 -0.156612 0.317984 0.314774 -0.0151472 -0.325165 -6.45238 0.025 0 0 -1.60516 0.163625 
378 1 -0.121409 0.0611982 0.333106 0 -0.5 -6.39709 0.015 0 0 -0.346714 0.0353429 
312 1 -0.134707 0.120718 0.335164 0 -0.5 -6.39395 0.025 0 0 -1.60516 0.163625 
359 1 -0.107325 0.165399 0.348942 0 -0.5 -6.37276 0.015 0 0 -0.346714 0.0353429 
417 1 -0.0160313 0.220054 0.335151 0 -0.5 -6.39395 0.015 0 0 -0.346714 0.0353429 
419 1 -0.111609 -0.0424812 0.366751 0 -0.5 -6.34529 0.015 0 0 -0.346714 0.0353429 
362 1 -0.0154426 0.00760871 0.361405 0 -0.5 -6.35353 0.015 0 0 -0.346714 0.0353429 
303 1 -0.0551599 0.184479 0.36218 0 -0.5 -6.35235 0.025 0 0 -1.60516 0.163625 
334 1 -0.103439 0.220448 0.381892 0 -0.5 -6.32184 0.025 0 0 -1.60516 0.163625 
421 1 -0.0930175 0.0375422 0.393195 0 -0.5 -6.30428 0.015 0 0 -0.346714 0.0353429 
325 1 -0.109617 0.066439 0.461248 0.0497405 -0.588401 -6.20256 0.025 0 0 -1.60516 0.163625 
320 1 -0.0648735 -0.00307135 0.489531 0 -0.5 -6.15252 0.025 0 0 -1.60516 0.163625 
365 1 -0.170834 0.124997 0.484612 -0.198006 -0.434998 -6.08529 0.015 0 0 -0.346714 0.0353429 
372 1 -0.0702168 0.180237 0.499868 0 -0.5 -6.13604 0.015 0 0 -0.346714 0.0353429 
447 1 -0.122284 0.261789 0.491204 0 -0.5 -6.14988 0.015 0 0 -0.346714 0.0353429 
309 1 -0.144284 -0.00396909 0.51909 0 -0.5 -6.10524 0.025 0 0 -1.60516 0.163625 
387 1 -0.0901615 0.158452 0.525556 0 -0.5 -6.09484 0.015 0 0 -0.346714 0.0353429 
338 1 -0.0583644 0.249556 0.522739 0 -0.5 -6.09935 0.025 0 0 -1.60516 0.163625 
430 1 -0.123083 0.0433929 0.539103 0 -0.5 -6.07296 0.015 0 0 -0.346714 0.0353429 
403 1 -0.0833248 0.049397 0.545004 0 -0.5 -6.06345 0.015 0 0 -0.346714 0.0353429 
393 1 -0.015571 0.220279 0.566408 0 -0.5 -6.02872 0.015 0 0 -0.346714 0.0353429 
379 1 -0.0327871 -0.00167085 0.573566 0 -0.5 -6.01705 0.015 0 0 -0.346714 0.0353429 
357 1 -0.0584785 0.0472145 0.627973 0 -0.5 -5.92768 0.015 0 0 -0.346714 0.0353429 
316 1 -0.0983119 -0.0178893 0.640287 0 -0.5 -5.90727 0.025 0 0 -1.60516 0.163625 
596 1 -0.00593628 0.00615706 0.636106 -0.249685 -0.689253 -5.82807 0.015 0 0 -0.346714 0.0353429 
380 1 -0.127355 0.157976 0.654725 0 -0.5 -5.88324 0.015 0 0 -0.346714 0.0353429 
301 1 -0.0836108 0.217514 0.643077 0.012148 -0.512208 -5.90265 0.025 0 0 -1.60516 0.163625 
428 1 -0.0387226 0.232002 0.65268 0 -0.5 -5.88667 0.015 0 0 -0.346714 0.0353429 
329 1 -0.128948 0.26325 0.635626 -0.0138001 -0.485947 -5.91506 0.025 0 0 -1.60516 0.163625 
450 1 -0.0322061 0.276898 0.655137 0 -0.5 -5.88255 0.015 0 0 -0.346714 0.0353429 
364 1 -0.0453235 0.0128065 0.664362 0 -0.5 -5.86715 0.015 0 0 -0.346714 0.0353429 
321 1 -0.126579 0.0532512 0.666353 0 -0.5 -5.86382 0.025 0 0 -1.60516 0.163625 
410 1 -0.145474 0.102536 0.67538 0 -0.5 -5.84871 0.015 0 0 -0.346714 0.0353429 
333 1 -0.0978849 0.115337 0.668288 0 -0.5 -5.86058 0.025 0 0 -1.60516 0.163625 
337 1 -0.142368 0.198838 0.697307 0 -0.5 -5.81182 0.025 0 0 -1.60516 0.163625 
332 1 -0.0814262 0.044266 0.775765 0 -0.5 -5.67782 0.025 0 0 -1.60516 0.163625 
425 1 -0.074083 -0.00921323 0.804777 0 -0.5 -5.62749 0.015 0 0 -0.346714 0.0353429 
400 1 -0.135353 0.087905 0.783211 0 -0.5 -5.66497 0.015 0 0 -0.346714 0.0353429 
339 1 -0.0802774 0.25266 0.803701 0 -0.5 -5.62936 0.025 0 0 -1.60516 0.163625 
305 1 -0.0452536 0.289472 0.804771 0 -0.5 -5.62749 0.025 0 0 -1.60516 0.163625 
544 1 -0.121592 0.42599 0.785669 -0.39021 -0.130746 -5.71093 0.015 0 0 -0.346714 0.0353429 
311 1 -0.0354402 0.00636754 0.826413 0 -0.5 -5.58963 0.025 0 0 -1.60516 0.163625 
345 1 -0.128178 0.0546745 0.842304 0 -0.5 -5.56167 0.025 0 0 -1.60516 0.163625 
317 1 -0.129905 0.130055 0.819371 0 -0.5 -5.60199 0.025 0 0 -1.60516 0.163625 
366 1 -0.144217 0.207022 0.814489 0 -0.5 -5.61052 0.015 0 0 -0.346714 0.0353429 
405 1 -0.038992 0.24139 0.826077 0 -0.5 -5.59021 0.015 0 0 -0.346714 0.0353429 
404 1 -0.119976 0.0118444 0.849314 0 -0.5 -5.54931 0.015 0 0 -0.346714 0.0353429 
435 1 -0.0960728 0.0919762 0.850208 0 -0.5 -5.54774 0.015 0 0 -0.346714 0.0353429 
675 1 -0.140791 0.286919 0.887402 -0.0349785 -0.349711 -5.54456 0.015 0 0 -0.346714 0.0353429 
444 1 -0.0159467 0.287826 0.882986 0 -0.5 -5.48947 0.015 0 0 -0.346714 0.0353429 
714 1 -0.0240605 0.056326 0.923444 0 -0.5 -5.41668 0.015 0 0 -0.346714 0.0353429 
690 1 -0.0634806 0.254565 0.931224 0 -0.5 -5.40255 0.015 0 0 -0.346714 0.0353429 
634 1 -0.102181 0.276021 0.933885 0 -0.5 -5.39774 0.025 0 0 -1.60516 0.163625 
676 1 -0.132839 0.0838674 0.943582 0 -0.5 -5.38008 0.015 0 0 -0.346714 0.0353429 
652 1 -0.0683105 0.0883376 0.962344 0 -0.5 -5.34575 0.015 0 0 -0.346714 0.0353429 
629 1 -0.113195 0.135381 0.977286 0 -0.5 -5.31828 0.025 0 0 -1.60516 0.163625 
669 1 -0.0318411 0.265893 0.966736 0 -0.5 -5.33771 0.015 0 0 -0.346714 0.0353429 
608 1 -0.0938106 0.0247933 1.01327 0 -0.5 -5.25148 0.025 0 0 -1.60516 0.163625 
682 1 -0.0469368 0.0207812 1.02349 0 -0.5 -5.23235 0.015 0 0 -0.346714 0.0353429 
606 1 -0.122237 0.20913 1.01836 0.00210743 -0.508228 -5.23861 0.025 0 0 -1.60516 0.163625 
708 1 -0.0786991 0.249401 1.01563 0 -0.5 -5.24706 0.015 0 0 -0.346714 0.0353429 
701 1 -0.0870486 0.307674 1.01987 0 -0.5 -5.23911 0.015 0 0 -0.346714 0.0353429 
657 1 -0.0480729 0.0589275 1.03483 0 -0.5 -5.21106 0.015 0 0 -0.346714 0.0353429 
735 1 -0.0832421 0.102669 1.05419 0 -0.5 -5.17447 0.015 0 0 -0.346714 0.0353429 
660 1 -0.0183143 0.262377 1.03914 0 -0.5 -5.20292 0.015 0 0 -0.346714 0.0353429 
618 1 -0.13283 0.0691641 1.10661 0 -0.5 -5.07411 0.025 0 0 -1.60516 0.163625 
709 1 -0.101732 0.151531 1.09629 0 -0.5 -5.09402 0.015 0 0 -0.346714 0.0353429 
750 1 -0.0862874 0.216179 1.1091 0 -0.5 -5.0693 0.015 0 0 -0.346714 0.0353429 
707 1 -0.0900659 0.0519886 1.12592 0 -0.5 -5.03664 0.015 0 0 -0.346714 0.0353429 
680 1 -0.0791761 0.106881 1.14269 0 -0.5 -5.00387 0.015 0 0 -0.346714 0.0353429 
649 1 -0.129761 0.185177 1.12734 0 -0.5 -5.03389 0.025 0 0 -1.60516 0.163625 
640 1 -0.0489559 0.0715172 1.15591 0 -0.5 -4.97787 0.025 0 0 -1.60516 0.163625 
616 1 -0.140255 0.277264 1.15681 0 -0.5 -4.97611 0.025 0 0 -1.60516 0.163625 
712 1 -0.0372677 0.32255 1.16963 0 -0.5 -4.9508 0.015 0 0 -0.346714 0.0353429 
677 1 -0.113879 0.0423032 1.19224 0 -0.5 -4.90577 0.015 0 0 -0.346714 0.0353429 
725 1 -0.0732043 0.279614 1.18063 0 -0.5 -4.92892 0.015 0 0 -0.346714 0.0353429 
744 1 -0.107021 0.228725 1.21179 0 -0.5 -4.86653 0.015 0 0 -0.346714 0.0353429 
685 1 -0.0969629 0.275703 1.23608 0 -0.5 -4.81728 0.015 0 0 -0.346714 0.0353429 
736 1 -0.0864872 0.135793 1.24682 0 -0.5 -4.79541 0.015 0 0 -0.346714 0.0353429 
625 1 -0.0508378 0.225653 1.26125 0.250947 -0.205125 -4.86869 0.025 0 0 -1.60516 0.163625 
674 1 -0.11657 0.331544 1.27094 0 -0.5 -4.74577 0.015 0 0 -0.346714 0.0353429 
699 1 -0.0856858 0.33342 1.26805 0 -0.5 -4.75175 0.015 0 0 -0.346714 0.0353429 
610 1 -0.108705 0.075549 1.29333 0 -0.5 -4.69927 0.025 0 0 -1.60516 0.163625 
692 1 -0.0389882 0.0970701 1.27719 0 -0.5 -4.73282 0.015 0 0 -0.346714 0.0353429 
722 1 -0.124711 0.274428 1.27729 0 -0.5 -4.73262 0.015 0 0 -0.346714 0.0353429 
683 1 -0.0829948 0.276592 1.29911 0 -0.5 -4.6872 0.015 0 0 -0.346714 0.0353429 
620 1 -0.0294016 0.307755 1.28939 0 -0.5 -4.70751 0.025 0 0 -1.60516 0.163625 
748 1 -0.0192599 0.0648309 1.31527 0 -0.5 -4.65326 0.015 0 0 -0.346714 0.0353429 
636 1 -0.149776 0.250476 1.33162 0 -0.5 -4.61863 0.025 0 0 -1.60516 0.163625 
732 1 -0.0691875 0.313647 1.3064 0 -0.5 -4.6719 0.015 0 0 -0.346714 0.0353429 
678 1 -0.0973357 0.205233 1.34438 0 -0.5 -4.59146 0.015 0 0 -0.346714 0.0353429 
696 1 -0.058387 0.279843 1.36034 0 -0.5 -4.55722 0.015 0 0 -0.346714 0.0353429 
705 1 -0.0946775 0.0532794 1.36707 0 -0.5 -4.5427 0.015 0 0 -0.346714 0.0353429 
641 1 -0.148236 0.11598 1.38083 -0.0165282 -0.51578 -4.50691 0.025 0 0 -1.60516 0.163625 
694 1 -0.138308 0.217231 1.39403 0 -0.5 -4.48414 0.015 0 0 -0.346714 0.0353429 
698 1 -0.111785 0.293616 1.38053 0 -0.5 -4.51357 0.015 0 0 -0.346714 0.0353429 
648 1 -0.130879 0.334847 1.37058 0 -0.5 -4.53515 0.025 0 0 -1.60516 0.163625 
637 1 -0.0618774 0.0848169 1.41544 0 -0.5 -4.43705 0.025 0 0 -1.60516 0.163625 
730 1 -0.0250727 0.0652457 1.40566 0 -0.5 -4.45863 0.015 0 0 -0.346714 0.0353429 
729 1 -0.0894542 0.115908 1.4184 0 -0.5 -4.43048 0.015 0 0 -0.346714 0.0353429 
745 1 -0.0572827 0.228832 1.42295 0.249023 -0.340208 -4.49342 0.015 0 0 -0.346714 0.0353429 
733 1 -0.0833844 0.250272 1.3952 0 -0.5 -4.48159 0.015 0 0 -0.346714 0.0353429 
639 1 -0.048579 0.462048 1.40663 0.113569 0.037071 -4.50508 0.025 0 0 -1.60516 0.163625 
644 1 -0.140738 0.063303 1.42526 0 -0.5 -4.41527 0.025 0 0 -1.60516 0.163625 
724 1 -0.0903421 0.153009 1.43746 0 -0.5 -4.3881 0.015 0 0 -0.346714 0.0353429 
684 1 -0.0877228 0.0984894 1.48565 0 -0.5 -4.27901 0.015 0 0 -0.346714 0.0353429 
628 1 -0.0949636 0.253292 1.46195 -0.035052 -0.643145 -4.31895 0.025 0 0 -1.60516 0.163625 