ITEM: TIMESTEP
34400
ITEM: NUMBER OF ATOMS
600
ITEM: BOX BOUNDS mm mm mm
-1 1
-1 1
-0.05 2.85
ITEM: ATOMS id type x y z vx vy vz radius fx fy fz mass 
68 1 -0.0997213 0.0732714 0.994456 0 -0.5 -5.2865 0.015 0 0 -0.346714 0.0353429 
137 1 -0.0883732 0.120194 1.00731 -0.00924354 -0.479856 -5.26364 0.015 0 0 -0.346714 0.0353429 
33 1 -0.129286 0.264605 1.01588 0 -0.5 -5.24657 0.025 0 0 -1.60516 0.163625 
45 1 -0.0943793 0.0242376 1.0217 0 -0.5 -5.23568 0.025 0 0 -1.60516 0.163625 
119 1 -0.0370509 0.0131886 1.04979 0 -0.5 -5.18281 0.015 0 0 -0.346714 0.0353429 
122 1 -0.0702216 0.0811359 1.0221 0.00811842 -0.517403 -5.23406 0.015 0 0 -0.346714 0.0353429 
43 1 -0.116198 0.175785 1.04184 0 -0.5 -5.19781 0.025 0 0 -1.60516 0.163625 
111 1 -0.0487783 0.3081 1.04241 0 -0.5 -5.19674 0.015 0 0 -0.346714 0.0353429 
75 1 -0.0493142 0.0636721 1.06626 0 -0.5 -5.15151 0.015 0 0 -0.346714 0.0353429 
89 1 -0.129145 0.0923079 1.07234 0 -0.5 -5.13994 0.015 0 0 -0.346714 0.0353429 
78 1 -0.0422369 0.271955 1.05718 0 -0.5 -5.16878 0.015 0 0 -0.346714 0.0353429 
59 1 -0.0865612 0.220868 1.08577 0 -0.5 -5.11423 0.015 0 0 -0.346714 0.0353429 
92 1 -0.131017 0.315327 1.09996 0 -0.5 -5.08696 0.015 0 0 -0.346714 0.0353429 
8 1 -0.104188 0.031463 1.16787 0 -0.5 -4.95423 0.025 0 0 -1.60516 0.163625 
26 1 -0.0710828 0.137632 1.14258 0.14857 -0.341553 -5.05601 0.025 0 0 -1.60516 0.163625 
98 1 -0.147127 0.164442 1.15218 0 -0.5 -4.98523 0.015 0 0 -0.346714 0.0353429 
151 1 -0.0686397 0.246527 1.15164 0 -0.5 -4.98631 0.015 0 0 -0.346714 0.0353429 
140 1 -0.125739 0.141556 1.20076 0 -0.5 -4.8887 0.015 0 0 -0.346714 0.0353429 
3 1 -0.141317 0.229388 1.17507 0 -0.5 -4.94001 0.025 0 0 -1.60516 0.163625 
72 1 -0.105673 0.266796 1.18742 0 -0.5 -4.91538 0.015 0 0 -0.346714 0.0353429 
40 1 -0.104474 0.318198 1.20178 0 -0.5 -4.88664 0.025 0 0 -1.60516 0.163625 
117 1 -0.0596227 0.0430208 1.22358 0 -0.5 -4.84269 0.015 0 0 -0.346714 0.0353429 
100 1 -0.0681017 0.099921 1.20521 0 -0.5 -4.87977 0.015 0 0 -0.346714 0.0353429 
118 1 -0.0372647 0.301681 1.20989 0 -0.5 -4.87036 0.015 0 0 -0.346714 0.0353429 
51 1 -0.156207 0.0591287 1.24534 -0.0265052 -0.519812 -4.79079 0.025 0 0 -1.60516 0.163625 
148 1 -0.154092 0.169168 1.25105 -0.171679 -0.397353 -4.89203 0.015 0 0 -0.346714 0.0353429 
60 1 -0.0770515 0.0519276 1.29281 0 -0.5 -4.70035 0.015 0 0 -0.346714 0.0353429 
11 1 -0.101456 0.207822 1.29001 0.022917 -0.457889 -4.72951 0.025 0 0 -1.60516 0.163625 
90 1 -0.146535 0.319667 1.27536 0 -0.5 -4.73665 0.015 0 0 -0.346714 0.0353429 
74 1 -0.0790012 0.263893 1.3227 0 -0.5 -4.63757 0.015 0 0 -0.346714 0.0353429 
50 1 -0.130982 0.276355 1.29408 0 -0.5 -4.6977 0.025 0 0 -1.60516 0.163625 
44 1 -0.125916 0.0435965 1.34433 0 -0.5 -4.59156 0.025 0 0 -1.60516 0.163625 
105 1 -0.165031 0.19211 1.32779 -0.321192 -0.368687 -4.61322 0.015 0 0 -0.346714 0.0353429 
76 1 -0.0202065 0.29207 1.33569 0 -0.5 -4.61 0.015 0 0 -0.346714 0.0353429 
36 1 -0.103411 0.0903125 1.3618 0 -0.5 -4.55408 0.025 0 0 -1.60516 0.163625 
54 1 -0.149695 0.127828 1.37745 -0.0956439 -0.529683 -4.50278 0.015 0 0 -0.346714 0.0353429 
29 1 -0.0788351 0.306182 1.35692 0 -0.5 -4.56458 0.025 0 0 -1.60516 0.163625 
73 1 -0.0639552 0.0697667 1.41491 0 -0.5 -4.43823 0.015 0 0 -0.346714 0.0353429 
114 1 -0.0719915 0.120426 1.39055 -0.00040144 -0.499666 -4.49187 0.015 0 0 -0.346714 0.0353429 
113 1 -0.118506 0.341198 1.40979 0 -0.5 -4.44951 0.015 0 0 -0.346714 0.0353429 
146 1 -0.109965 0.0569163 1.43288 0 -0.5 -4.3983 0.015 0 0 -0.346714 0.0353429 
2 1 -0.110349 0.217071 1.41951 0 -0.5 -4.42802 0.025 0 0 -1.60516 0.163625 
88 1 -0.0666498 0.283919 1.44583 0 -0.5 -4.36936 0.015 0 0 -0.346714 0.0353429 
12 1 -0.0363281 0.326336 1.43167 0 -0.5 -4.40105 0.025 0 0 -1.60516 0.163625 
99 1 -0.146283 0.121517 1.46478 0 -0.5 -4.32659 0.015 0 0 -0.346714 0.0353429 
57 1 -0.120673 0.173061 1.45458 0 -0.5 -4.34964 0.015 0 0 -0.346714 0.0353429 
66 1 -0.0281121 0.108823 1.49903 0 -0.5 -4.24821 0.015 0 0 -0.346714 0.0353429 
19 1 -0.0715757 0.131252 1.49584 0 -0.5 -4.25556 0.025 0 0 -1.60516 0.163625 
83 1 -0.108229 0.151146 1.49282 0 -0.5 -4.26253 0.015 0 0 -0.346714 0.0353429 
10 1 -0.0818197 0.265941 1.48795 0.0800593 -0.36273 -4.37347 0.025 0 0 -1.60516 0.163625 
34 1 -0.138562 0.290511 1.48826 0 -0.5 -4.27303 0.025 0 0 -1.60516 0.163625 
81 1 -0.051385 0.291999 1.50208 0 -0.5 -4.24114 0.015 0 0 -0.346714 0.0353429 
71 1 -0.145263 0.334198 1.5057 0 -0.5 -4.23281 0.015 0 0 -0.346714 0.0353429 
67 1 -0.0183057 0.0643887 1.51989 0 -0.5 -4.19975 0.015 0 0 -0.346714 0.0353429 
24 1 -0.138394 0.0914519 1.53007 0 -0.5 -4.17591 0.025 0 0 -1.60516 0.163625 
133 1 -0.127566 0.207944 1.53724 0 -0.5 -4.15903 0.015 0 0 -0.346714 0.0353429 
103 1 -0.135939 0.135722 1.56026 0 -0.5 -4.10439 0.015 0 0 -0.346714 0.0353429 
95 1 -0.10482 0.295312 1.5401 0 -0.5 -4.15226 0.015 0 0 -0.346714 0.0353429 
143 1 -0.11631 0.353682 1.56734 0 -0.5 -4.08742 0.015 0 0 -0.346714 0.0353429 
39 1 -0.0696793 0.34501 1.5402 0 -0.5 -4.15207 0.025 0 0 -1.60516 0.163625 
70 1 -0.107191 0.117924 1.5702 0 -0.5 -4.08055 0.015 0 0 -0.346714 0.0353429 
28 1 -0.0685748 0.0940701 1.59053 0 -0.5 -4.03141 0.025 0 0 -1.60516 0.163625 
97 1 -0.0338223 0.121144 1.58325 0 -0.5 -4.04906 0.015 0 0 -0.346714 0.0353429 
115 1 -0.076478 0.156431 1.58358 0 -0.5 -4.04828 0.015 0 0 -0.346714 0.0353429 
85 1 -0.13789 0.278015 1.58552 0 -0.5 -4.04357 0.015 0 0 -0.346714 0.0353429 
96 1 -0.131998 0.121081 1.61957 0 -0.5 -3.96009 0.015 0 0 -0.346714 0.0353429 
126 1 -0.117134 0.210523 1.60418 -0.0288748 -0.539424 -3.96691 0.015 0 0 -0.346714 0.0353429 
134 1 -0.137197 0.318367 1.59844 0 -0.5 -4.01208 0.015 0 0 -0.346714 0.0353429 
77 1 -0.0297287 0.346749 1.60408 0 -0.5 -3.99825 0.015 0 0 -0.346714 0.0353429 
120 1 -0.148569 0.367261 1.6057 0 -0.5 -3.99432 0.015 0 0 -0.346714 0.0353429 
38 1 -0.121616 0.162188 1.63569 0 -0.5 -3.91996 0.025 0 0 -1.60516 0.163625 
150 1 -0.100106 0.133207 1.68271 0 -0.5 -3.80048 0.015 0 0 -0.346714 0.0353429 
130 1 -0.0642546 0.156441 1.66546 0 -0.5 -3.84472 0.015 0 0 -0.346714 0.0353429 
23 1 -0.134189 0.298519 1.66478 0 -0.5 -3.84649 0.025 0 0 -1.60516 0.163625 
18 1 -0.106015 0.363686 1.68365 0 -0.5 -3.79803 0.025 0 0 -1.60516 0.163625 
4 1 -0.0330873 0.376857 1.68305 0 -0.5 -3.7996 0.025 0 0 -1.60516 0.163625 
110 1 -0.0868918 0.0884165 1.71358 0 -0.5 -3.71994 0.015 0 0 -0.346714 0.0353429 
31 1 -0.140814 0.0988773 1.69376 0 -0.5 -3.77183 0.025 0 0 -1.60516 0.163625 
93 1 -0.0244706 0.100158 1.72355 0 -0.5 -3.69355 0.015 0 0 -0.346714 0.0353429 
17 1 -0.134634 0.214027 1.72856 0 -0.5 -3.68021 0.025 0 0 -1.60516 0.163625 
136 1 -0.0832352 0.307008 1.72613 0 -0.5 -3.68668 0.015 0 0 -0.346714 0.0353429 
30 1 -0.0481876 0.334857 1.73191 0 -0.5 -3.67128 0.025 0 0 -1.60516 0.163625 
109 1 -0.0676248 0.38208 1.73113 0 -0.5 -3.67334 0.015 0 0 -0.346714 0.0353429 
106 1 -0.117891 0.408195 1.72629 -0.0998962 -0.230395 -3.88057 0.015 0 0 -0.346714 0.0353429 
108 1 -0.089121 0.120824 1.76187 0 -0.5 -3.59035 0.015 0 0 -0.346714 0.0353429 
69 1 -0.020474 0.141083 1.77774 0 -0.5 -3.54669 0.015 0 0 -0.346714 0.0353429 
102 1 -0.11709 0.120899 1.80418 0 -0.5 -3.47282 0.015 0 0 -0.346714 0.0353429 
139 1 -0.104092 0.178572 1.80406 0 -0.5 -3.47312 0.015 0 0 -0.346714 0.0353429 
144 1 -0.0691235 0.181474 1.80341 0 -0.5 -3.47498 0.015 0 0 -0.346714 0.0353429 
22 1 -0.102489 0.246306 1.80052 0 -0.5 -3.48312 0.025 0 0 -1.60516 0.163625 
35 1 -0.146938 0.314792 1.78244 0 -0.5 -3.53365 0.025 0 0 -1.60516 0.163625 
1 1 -0.145156 0.445253 1.78967 -0.021394 -0.0706631 -3.74553 0.025 0 0 -1.60516 0.163625 
14 1 -0.0571303 0.112975 1.81168 0 -0.5 -3.45154 0.025 0 0 -1.60516 0.163625 
141 1 -0.136875 0.194264 1.82189 0 -0.5 -3.4224 0.015 0 0 -0.346714 0.0353429 
87 1 -0.113676 0.315588 1.84201 0 -0.5 -3.36423 0.015 0 0 -0.346714 0.0353429 
55 1 -0.0959982 0.352396 1.81495 -7.52477e-06 -0.49998 -3.44225 0.015 0 0 -0.346714 0.0353429 
21 1 -0.0470047 0.3975 1.8319 0 -0.5 -3.39356 0.025 0 0 -1.60516 0.163625 
107 1 -0.141609 0.109948 1.85994 0 -0.5 -3.31155 0.015 0 0 -0.346714 0.0353429 
149 1 -0.0859623 0.224685 1.84539 0.199959 -0.45766 -3.68029 0.015 0 0 -0.346714 0.0353429 
94 1 -0.160616 0.261771 1.85653 -0.356499 -0.190573 -3.42979 0.015 0 0 -0.346714 0.0353429 
147 1 -0.100309 0.385431 1.87061 0 -0.5 -3.27976 0.015 0 0 -0.346714 0.0353429 
142 1 -0.0724928 0.134748 1.89195 0 -0.5 -3.21531 0.015 0 0 -0.346714 0.0353429 
112 1 -0.073338 0.193279 1.87751 0 -0.5 -3.25906 0.015 0 0 -0.346714 0.0353429 
84 1 -0.116406 0.273786 1.8752 0 -0.5 -3.26603 0.015 0 0 -0.346714 0.0353429 
47 1 -0.140465 0.35745 1.89202 0 -0.5 -3.21512 0.025 0 0 -1.60516 0.163625 
145 1 -0.0934491 0.350113 1.89337 0 -0.5 -3.211 0.015 0 0 -0.346714 0.0353429 
32 1 -0.156567 0.123906 1.92368 -0.0613285 -0.540948 -3.11155 0.025 0 0 -1.60516 0.163625 
6 1 -0.0978881 0.164218 1.90861 0.101461 -0.428163 -3.17449 0.025 0 0 -1.60516 0.163625 
135 1 -0.140472 0.202893 1.92289 0 -0.5 -3.11947 0.015 0 0 -0.346714 0.0353429 
15 1 -0.0880878 0.259008 1.92017 0.0430154 -0.390763 -3.06729 0.025 0 0 -1.60516 0.163625 
80 1 -0.102893 0.320893 1.90385 0 -0.5 -3.17882 0.015 0 0 -0.346714 0.0353429 
62 1 -0.0849655 0.410406 1.92272 0 -0.5 -3.12006 0.015 0 0 -0.346714 0.0353429 
138 1 -0.0317395 0.137316 1.93529 0 -0.5 -3.08023 0.015 0 0 -0.346714 0.0353429 
128 1 -0.145291 0.287677 1.93637 0 -0.5 -3.07679 0.015 0 0 -0.346714 0.0353429 
121 1 -0.0679495 0.392078 1.94936 0 -0.5 -3.0351 0.015 0 0 -0.346714 0.0353429 
52 1 -0.100497 0.14649 1.99464 0 -0.5 -2.88501 0.015 0 0 -0.346714 0.0353429 
61 1 -0.0231802 0.130935 1.98944 0 -0.5 -2.90267 0.015 0 0 -0.346714 0.0353429 
129 1 -0.0553418 0.161199 1.97297 0 -0.5 -2.9578 0.015 0 0 -0.346714 0.0353429 
79 1 -0.0179342 0.164984 1.98949 0 -0.5 -2.90247 0.015 0 0 -0.346714 0.0353429 
13 1 -0.146779 0.243821 1.98228 0 -0.5 -2.9268 0.025 0 0 -1.60516 0.163625 
101 1 -0.102489 0.253824 1.97969 0 -0.5 -2.93543 0.015 0 0 -0.346714 0.0353429 
91 1 -0.124131 0.350132 1.98978 0 -0.5 -2.90149 0.015 0 0 -0.346714 0.0353429 
37 1 -0.0716655 0.356665 1.97933 0 -0.5 -2.93661 0.025 0 0 -1.60516 0.163625 
46 1 -0.032303 0.418569 1.98265 0 -0.5 -2.92552 0.025 0 0 -1.60516 0.163625 
5 1 -0.137704 0.174412 2.00138 0 -0.5 -2.86205 0.025 0 0 -1.60516 0.163625 
7 1 -0.0712578 0.213449 2.00346 0 -0.5 -2.85489 0.025 0 0 -1.60516 0.163625 
20 1 -0.124339 0.301888 1.99929 0 -0.5 -2.86922 0.025 0 0 -1.60516 0.163625 
86 1 -0.142939 0.343059 2.02526 0 -0.5 -2.77896 0.015 0 0 -0.346714 0.0353429 
65 1 -0.147981 0.151097 2.04428 0 -0.5 -2.71098 0.015 0 0 -0.346714 0.0353429 
58 1 -0.0969698 0.247891 2.03591 0 -0.5 -2.7411 0.015 0 0 -0.346714 0.0353429 
124 1 -0.136447 0.373377 2.03584 0 -0.5 -2.74139 0.015 0 0 -0.346714 0.0353429 
9 1 -0.0320364 0.377159 2.02738 0 -0.5 -2.77151 0.025 0 0 -1.60516 0.163625 
41 1 -0.107908 0.428758 2.04271 0 -0.5 -2.71667 0.025 0 0 -1.60516 0.163625 
132 1 -0.0234712 0.184168 2.07783 0 -0.5 -2.58679 0.015 0 0 -0.346714 0.0353429 
48 1 -0.144727 0.241852 2.07735 0 -0.5 -2.58855 0.025 0 0 -1.60516 0.163625 
53 1 -0.106432 0.28634 2.0786 0 -0.5 -2.58384 0.015 0 0 -0.346714 0.0353429 
104 1 -0.138444 0.315217 2.06673 0 -0.5 -2.62848 0.015 0 0 -0.346714 0.0353429 
131 1 -0.025873 0.41604 2.06103 0 -0.5 -2.64967 0.015 0 0 -0.346714 0.0353429 
49 1 -0.0613084 0.16171 2.08936 0 -0.5 -2.54264 0.025 0 0 -1.60516 0.163625 
25 1 -0.104447 0.195785 2.11655 0 -0.5 -2.43551 0.025 0 0 -1.60516 0.163625 
127 1 -0.0304133 0.207621 2.11015 0 -0.5 -2.46112 0.015 0 0 -0.346714 0.0353429 
16 1 -0.129915 0.385079 2.09117 0 -0.5 -2.53568 0.025 0 0 -1.60516 0.163625 
82 1 -0.0851821 0.375627 2.09484 0 -0.5 -2.52145 0.015 0 0 -0.346714 0.0353429 
27 1 -0.0637137 0.411885 2.09154 0 -0.5 -2.5342 0.025 0 0 -1.60516 0.163625 
63 1 -0.147823 0.441713 2.1002 0 -0.5 -2.50046 0.015 0 0 -0.346714 0.0353429 
56 1 -0.11556 0.439119 2.11007 0 -0.5 -2.46141 0.015 0 0 -0.346714 0.0353429 
392 1 -0.0201822 0.159377 2.14347 0 -0.5 -2.32456 0.015 0 0 -0.346714 0.0353429 
361 1 -0.0655065 0.187159 2.14211 0 -0.5 -2.33025 0.015 0 0 -0.346714 0.0353429 
375 1 -0.132504 0.224213 2.14721 0 -0.5 -2.30867 0.015 0 0 -0.346714 0.0353429 
42 1 -0.132916 0.288796 2.12462 0 -0.5 -2.40275 0.025 0 0 -1.60516 0.163625 
123 1 -0.11925 0.345492 2.12665 0 -0.5 -2.39441 0.015 0 0 -0.346714 0.0353429 
391 1 -0.0665259 0.38619 2.14285 0 -0.5 -2.32711 0.015 0 0 -0.346714 0.0353429 
64 1 -0.145219 0.409177 2.13433 0 -0.5 -2.36272 0.015 0 0 -0.346714 0.0353429 
125 1 -0.0960051 0.401127 2.13537 0 -0.5 -2.35851 0.015 0 0 -0.346714 0.0353429 
449 1 -0.121601 0.16497 2.16966 0 -0.5 -2.21126 0.015 0 0 -0.346714 0.0353429 
348 1 -0.0436471 0.179394 2.17783 -0.0150753 -0.514502 -2.16711 0.025 0 0 -1.60516 0.163625 
429 1 -0.0147014 0.208751 2.15832 0.187199 -0.301038 -2.36277 0.015 0 0 -0.346714 0.0353429 
353 1 -0.0778865 0.24051 2.15745 0 -0.5 -2.26472 0.015 0 0 -0.346714 0.0353429 
432 1 -0.110656 0.300023 2.16391 0 -0.5 -2.23657 0.015 0 0 -0.346714 0.0353429 
423 1 -0.035066 0.404352 2.16305 0 -0.5 -2.24039 0.015 0 0 -0.346714 0.0353429 
370 1 -0.0476722 0.458061 2.15745 0 -0.5 -2.26482 0.015 0 0 -0.346714 0.0353429 
409 1 -0.1116 0.272279 2.18224 0 -0.5 -2.15465 0.015 0 0 -0.346714 0.0353429 
304 1 -0.147639 0.398299 2.19433 0 -0.5 -2.09893 0.025 0 0 -1.60516 0.163625 
434 1 -0.110177 0.432235 2.18115 0 -0.5 -2.15966 0.015 0 0 -0.346714 0.0353429 
327 1 -0.047146 0.435396 2.20702 0 -0.5 -2.0388 0.025 0 0 -1.60516 0.163625 
440 1 -0.074831 0.181528 2.23543 -0 0 -2 0.015 0 0 0 0.0353429 
307 1 -0.141488 0.200701 2.22947 -0 0 -2 0.025 0 0 0 0.163625 
368 1 -0.0426125 0.209553 2.21721 -0 0 -2 0.015 0 0 0 0.0353429 
328 1 -0.101567 0.23302 2.22438 -0 0 -2 0.025 0 0 0 0.163625 
414 1 -0.12165 0.342412 2.2094 0 -0.5 -2.02722 0.015 0 0 -0.346714 0.0353429 
416 1 -0.148865 0.363752 2.21493 0 -0.5 -2.00034 0.015 0 0 -0.346714 0.0353429 
342 1 -0.0942786 0.383532 2.2249 -0 0 -2 0.025 0 0 0 0.163625 
422 1 -0.0856494 0.426278 2.21642 -0 0 -2 0.015 0 0 0 0.0353429 
441 1 -0.0895132 0.461297 2.22964 -0 0 -2 0.015 0 0 0 0.0353429 
388 1 -0.0545692 0.242431 2.24803 -0 0 -2 0.015 0 0 0 0.0353429 
323 1 -0.131477 0.311783 2.24714 -0 0 -2 0.025 0 0 0 0.163625 
318 1 -0.126425 0.383688 2.26889 -0 0 -2 0.025 0 0 0 0.163625 
352 1 -0.144025 0.417624 2.24028 -0 0 -2 0.015 0 0 0 0.0353429 
406 1 -0.0920408 0.414471 2.25179 -0 0 -2 0.015 0 0 0 0.0353429 
330 1 -0.125578 0.473218 2.24225 -0 0 -2 0.025 0 0 0 0.163625 
331 1 -0.138106 0.176551 2.27614 -0 0 -2 0.025 0 0 0 0.163625 
418 1 -0.0554251 0.183195 2.26998 -0 0 -2 0.015 0 0 0 0.0353429 
395 1 -0.110093 0.233322 2.27321 -0 0 -2 0.015 0 0 0 0.0353429 
313 1 -0.0392615 0.218859 2.28234 -0 0 -2 0.025 0 0 0 0.163625 
315 1 -0.0970947 0.282811 2.29338 -0 0 -2 0.025 0 0 0 0.163625 
407 1 -0.0713596 0.410324 2.29408 -0 0 -2 0.015 0 0 0 0.0353429 
336 1 -0.025747 0.416073 2.27281 -0 0 -2 0.025 0 0 0 0.163625 
374 1 -0.133879 0.440362 2.28343 -0 0 -2 0.015 0 0 0 0.0353429 
310 1 -0.0919271 0.448743 2.29201 -0 0 -2 0.025 0 0 0 0.163625 
377 1 -0.128279 0.19547 2.31202 -0 0 -2 0.015 0 0 0 0.0353429 
302 1 -0.0567477 0.188796 2.32908 -0 0 -2 0.025 0 0 0 0.163625 
401 1 -0.0913429 0.220505 2.32811 -0 0 -2 0.015 0 0 0 0.0353429 
439 1 -0.132801 0.307992 2.32662 -0 0 -2 0.015 0 0 0 0.0353429 
344 1 -0.147144 0.347235 2.31984 -0 0 -2 0.025 0 0 0 0.163625 
445 1 -0.0938501 0.351198 2.30079 -0 0 -2 0.015 0 0 0 0.0353429 
386 1 -0.118095 0.41734 2.31008 -0 0 -2 0.015 0 0 0 0.0353429 
431 1 -0.13363 0.212461 2.34777 -0 0 -2 0.015 0 0 0 0.0353429 
355 1 -0.0483468 0.232484 2.34411 -0 0 -2 0.015 0 0 0 0.0353429 
314 1 -0.136534 0.255606 2.33352 -0 0 -2 0.025 0 0 0 0.163625 
446 1 -0.116317 0.366731 2.35859 -0 0 -2 0.015 0 0 0 0.0353429 
354 1 -0.0927402 0.400508 2.34697 -0 0 -2 0.015 0 0 0 0.0353429 
413 1 -0.0512121 0.403311 2.34102 -0 0 -2 0.015 0 0 0 0.0353429 
442 1 -0.149932 0.462501 2.34169 -0 0 -2 0.015 0 0 0 0.0353429 
408 1 -0.087028 0.469634 2.34623 -0 0 -2 0.015 0 0 0 0.0353429 
350 1 -0.147794 0.212625 2.38609 -0 0 -2 0.025 0 0 0 0.163625 
399 1 -0.074527 0.226788 2.38004 -0 0 -2 0.015 0 0 0 0.0353429 
335 1 -0.126459 0.273678 2.38598 -0 0 -2 0.025 0 0 0 0.163625 
436 1 -0.0854574 0.281776 2.3797 -0 0 -2 0.015 0 0 0 0.0353429 
341 1 -0.148816 0.394703 2.38111 -0 0 -2 0.025 0 0 0 0.163625 
385 1 -0.0696212 0.401745 2.3895 -0 0 -2 0.015 0 0 0 0.0353429 
411 1 -0.0485728 0.448156 2.36261 -0 0 -2 0.015 0 0 0 0.0353429 
382 1 -0.111765 0.470126 2.37226 -0 0 -2 0.015 0 0 0 0.0353429 
389 1 -0.0230912 0.468001 2.38171 -0 0 -2 0.015 0 0 0 0.0353429 
324 1 -0.0498553 0.178658 2.39119 -0 0 -2 0.025 0 0 0 0.163625 
367 1 -0.106717 0.230156 2.4137 -0 0 -2 0.015 0 0 0 0.0353429 
437 1 -0.0723044 0.254202 2.39514 -0 0 -2 0.015 0 0 0 0.0353429 
394 1 -0.145405 0.426519 2.40767 -0 0 -2 0.015 0 0 0 0.0353429 
384 1 -0.142553 0.470858 2.39151 -0 0 -2 0.015 0 0 0 0.0353429 
427 1 -0.116274 0.458291 2.4 -0 0 -2 0.015 0 0 0 0.0353429 
319 1 -0.0687817 0.474805 2.41988 -0 0 -2 0.025 0 0 0 0.163625 
426 1 -0.0179373 0.455344 2.41349 -0 0 -2 0.015 0 0 0 0.0353429 
433 1 -0.118613 0.17501 2.44562 -0 0 -2 0.015 0 0 0 0.0353429 
358 1 -0.127277 0.195217 2.42131 -0 0 -2 0.015 0 0 0 0.0353429 
420 1 -0.037203 0.182681 2.4476 -0 0 -2 0.015 0 0 0 0.0353429 
402 1 -0.101682 0.217667 2.44949 -0 0 -2 0.015 0 0 0 0.0353429 
376 1 -0.0824761 0.237462 2.43225 -0 0 -2 0.015 0 0 0 0.0353429 
326 1 -0.145564 0.324649 2.42223 -0 0 -2 0.025 0 0 0 0.163625 
306 1 -0.116739 0.395569 2.44887 -0 0 -2 0.025 0 0 0 0.163625 
424 1 -0.118548 0.427887 2.42249 -0 0 -2 0.015 0 0 0 0.0353429 
322 1 -0.131733 0.197689 2.47851 -0 0 -2 0.025 0 0 0 0.163625 
363 1 -0.0911777 0.291602 2.46191 -0 0 -2 0.015 0 0 0 0.0353429 
360 1 -0.116599 0.315716 2.46104 -0 0 -2 0.015 0 0 0 0.0353429 
396 1 -0.0958984 0.364505 2.47964 -0 0 -2 0.015 0 0 0 0.0353429 
397 1 -0.0557758 0.403383 2.46394 -0 0 -2 0.015 0 0 0 0.0353429 
381 1 -0.0827007 0.433694 2.4767 -0 0 -2 0.015 0 0 0 0.0353429 
371 1 -0.0449321 0.442824 2.46013 -0 0 -2 0.015 0 0 0 0.0353429 
412 1 -0.0937388 0.465344 2.45197 -0 0 -2 0.015 0 0 0 0.0353429 
308 1 -0.0755208 0.211588 2.49733 -0 0 -2 0.025 0 0 0 0.163625 
415 1 -0.127182 0.240475 2.50963 -0 0 -2 0.015 0 0 0 0.0353429 
398 1 -0.0484497 0.240461 2.49125 -0 0 -2 0.015 0 0 0 0.0353429 
438 1 -0.0987495 0.291508 2.49831 -0 0 -2 0.015 0 0 0 0.0353429 
373 1 -0.136858 0.343079 2.48344 -0 0 -2 0.015 0 0 0 0.0353429 
356 1 -0.111476 0.333774 2.50217 -0 0 -2 0.015 0 0 0 0.0353429 
443 1 -0.0906469 0.387283 2.5085 -0 0 -2 0.015 0 0 0 0.0353429 
369 1 -0.138958 0.401078 2.48495 -0 0 -2 0.015 0 0 0 0.0353429 
383 1 -0.0262689 0.419173 2.48554 -0 0 -2 0.015 0 0 0 0.0353429 
340 1 -0.149237 0.461517 2.50189 -0 0 -2 0.025 0 0 0 0.163625 
390 1 -0.0988461 0.19568 2.53064 -0 0 -2 0.015 0 0 0 0.0353429 
343 1 -0.140775 0.298259 2.51358 -0 0 -2 0.025 0 0 0 0.163625 
349 1 -0.116564 0.417399 2.51579 -0 0 -2 0.025 0 0 0 0.163625 
351 1 -0.0409452 0.415267 2.51839 -0 0 -2 0.015 0 0 0 0.0353429 
419 1 -0.111609 0.178994 2.56111 -0 0 -2 0.015 0 0 0 0.0353429 
448 1 -0.0329565 0.20149 2.54332 -0 0 -2 0.015 0 0 0 0.0353429 
347 1 -0.0548177 0.23798 2.54665 -0 0 -2 0.025 0 0 0 0.163625 
362 1 -0.0154426 0.229504 2.55942 -0 0 -2 0.015 0 0 0 0.0353429 
421 1 -0.0930175 0.256927 2.56948 -0 0 -2 0.015 0 0 0 0.0353429 
378 1 -0.121409 0.285313 2.55055 -0 0 -2 0.015 0 0 0 0.0353429 
312 1 -0.134707 0.344673 2.5512 -0 0 -2 0.025 0 0 0 0.163625 
359 1 -0.107325 0.388274 2.55551 -0 0 -2 0.015 0 0 0 0.0353429 
303 1 -0.0551599 0.406314 2.55967 -0 0 -2 0.025 0 0 0 0.163625 
334 1 -0.103439 0.440728 2.5659 -0 0 -2 0.025 0 0 0 0.163625 
417 1 -0.0160313 0.444009 2.55119 -0 0 -2 0.015 0 0 0 0.0353429 
346 1 -0.149998 0.46436 2.55609 -0 0 -2 0.025 0 0 0 0.163625 
320 1 -0.0648735 0.208579 2.6004 -0 0 -2 0.025 0 0 0 0.163625 
325 1 -0.117824 0.294875 2.59162 -0 0 -2 0.025 0 0 0 0.163625 
365 1 -0.146907 0.425762 2.57402 -0 0 -2 0.015 0 0 0 0.0353429 
447 1 -0.122284 0.473304 2.60095 -0 0 -2 0.015 0 0 0 0.0353429 
309 1 -0.144284 0.205271 2.61006 -0 0 -2 0.025 0 0 0 0.163625 
379 1 -0.0327871 0.203074 2.62803 -0 0 -2 0.015 0 0 0 0.0353429 
430 1 -0.123083 0.250988 2.61662 -0 0 -2 0.015 0 0 0 0.0353429 
403 1 -0.0833248 0.256507 2.61857 -0 0 -2 0.015 0 0 0 0.0353429 
372 1 -0.0702168 0.391047 2.60378 -0 0 -2 0.015 0 0 0 0.0353429 
387 1 -0.0901615 0.367162 2.61218 -0 0 -2 0.015 0 0 0 0.0353429 
393 1 -0.015571 0.425619 2.62566 -0 0 -2 0.015 0 0 0 0.0353429 
338 1 -0.0583644 0.458496 2.61125 -0 0 -2 0.025 0 0 0 0.163625 
316 1 -0.0983119 0.181261 2.65041 -0 0 -2 0.025 0 0 0 0.163625 
364 1 -0.0453235 0.209912 2.65859 -0 0 -2 0.015 0 0 0 0.0353429 
321 1 -0.126579 0.250186 2.65926 -0 0 -2 0.025 0 0 0 0.163625 
357 1 -0.0584785 0.247404 2.64625 -0 0 -2 0.015 0 0 0 0.0353429 
333 1 -0.0978849 0.312107 2.65992 -0 0 -2 0.025 0 0 0 0.163625 
380 1 -0.127355 0.355901 2.65531 -0 0 -2 0.015 0 0 0 0.0353429 
301 1 -0.0884221 0.421264 2.65136 -0 0 -2 0.025 0 0 0 0.163625 
428 1 -0.0387226 0.430102 2.65462 -0 0 -2 0.015 0 0 0 0.0353429 
329 1 -0.123479 0.457221 2.64885 -0 0 -2 0.025 0 0 0 0.163625 
450 1 -0.0322061 0.474788 2.65545 -0 0 -2 0.015 0 0 0 0.0353429 
410 1 -0.145474 0.298701 2.66235 -0 0 -2 0.015 0 0 0 0.0353429 
337 1 -0.142368 0.393123 2.66988 -0 0 -2 0.025 0 0 0 0.163625 
425 1 -0.074083 0.175677 2.70745 -0 0 -2 0.015 0 0 0 0.0353429 
311 1 -0.0354402 0.189328 2.71516 -0 0 -2 0.025 0 0 0 0.163625 
345 1 -0.128178 0.236209 2.72086 -0 0 -2 0.025 0 0 0 0.163625 
332 1 -0.0814262 0.231721 2.69718 -0 0 -2 0.025 0 0 0 0.163625 
400 1 -0.135353 0.274705 2.69982 -0 0 -2 0.015 0 0 0 0.0353429 
317 1 -0.129905 0.313645 2.71265 -0 0 -2 0.025 0 0 0 0.163625 
366 1 -0.144217 0.391047 2.71091 -0 0 -2 0.015 0 0 0 0.0353429 
339 1 -0.0802774 0.437645 2.70707 -0 0 -2 0.025 0 0 0 0.163625 
405 1 -0.038992 0.42438 2.71504 -0 0 -2 0.015 0 0 0 0.0353429 
305 1 -0.0452536 0.474362 2.70745 -0 0 -2 0.025 0 0 0 0.163625 
404 1 -0.119976 0.192749 2.72339 -0 0 -2 0.015 0 0 0 0.0353429 
435 1 -0.0960728 0.272801 2.72372 -0 0 -2 0.015 0 0 0 0.0353429 
444 1 -0.0159467 0.465681 2.7356 -0 0 -2 0.015 0 0 0 0.0353429 
289 1 0.0986448 0.24778 0.874864 0.0203384 -0.134604 -5.66479 0.015 0 0 -0.346714 0.0353429 
284 1 0.0704836 0.0206588 0.98531 -0.0310215 -0.613333 -5.35951 0.015 0 0 -0.346714 0.0353429 
203 1 0.0667127 0.0112328 1.01925 0 -0.5 -5.24029 0.015 0 0 -0.346714 0.0353429 
206 1 0.0985268 0.0500524 1.01869 0.057048 -0.582454 -5.28397 0.015 0 0 -0.346714 0.0353429 
199 1 0.0899269 0.161754 1.01671 -0.00278668 -0.321029 -5.33645 0.025 0 0 -1.60516 0.163625 
213 1 0.0350777 0.25057 1.0194 0 -0.5 -5.24 0.015 0 0 -0.346714 0.0353429 
272 1 0.0168276 0.285548 1.01459 0 -0.5 -5.24902 0.015 0 0 -0.346714 0.0353429 
259 1 0.149131 0.0518265 1.04523 0 -0.5 -5.19144 0.015 0 0 -0.346714 0.0353429 
237 1 0.127801 0.076081 1.04021 0.0724848 -0.475593 -5.18897 0.015 0 0 -0.346714 0.0353429 
214 1 0.144386 0.197733 1.02897 0 -0.5 -5.22205 0.015 0 0 -0.346714 0.0353429 
171 1 0.0955264 0.213107 1.04455 0 -0.5 -5.19271 0.025 0 0 -1.60516 0.163625 
226 1 0.110692 0.259304 1.03951 0 -0.5 -5.20223 0.015 0 0 -0.346714 0.0353429 
241 1 0.0849537 0.281018 1.03362 0 -0.5 -5.21331 0.015 0 0 -0.346714 0.0353429 
263 1 0.025742 0.0724937 1.05734 0 -0.5 -5.16848 0.015 0 0 -0.346714 0.0353429 
220 1 0.0188572 0.0285645 1.08582 -0.0669262 -0.554313 -5.10627 0.015 0 0 -0.346714 0.0353429 
116 1 0.0155895 0.168328 1.08087 0.36535 -0.287166 -5.22472 0.015 0 0 -0.346714 0.0353429 
177 1 0.15713 0.182073 1.08519 0.112606 -0.398162 -5.12128 0.025 0 0 -1.60516 0.163625 
290 1 0.149398 0.238809 1.12529 0.0439512 -0.299137 -4.99492 0.015 0 0 -0.346714 0.0353429 
166 1 0.0609489 0.315253 1.12699 0 -0.5 -5.03458 0.025 0 0 -1.60516 0.163625 
184 1 0.11251 0.313841 1.12088 0 -0.5 -5.04645 0.025 0 0 -1.60516 0.163625 
249 1 0.0491797 0.251421 1.14384 0 -0.5 -5.00161 0.015 0 0 -0.346714 0.0353429 
270 1 0.0946744 0.243669 1.15696 0 -0.5 -4.97581 0.015 0 0 -0.346714 0.0353429 
216 1 0.0893353 0.0491754 1.18355 0.0481324 -0.610657 -4.89865 0.015 0 0 -0.346714 0.0353429 
222 1 0.123753 0.0536614 1.17668 0 -0.5 -4.93677 0.015 0 0 -0.346714 0.0353429 
170 1 0.178635 0.237461 1.19915 0.161731 -0.381986 -4.90835 0.025 0 0 -1.60516 0.163625 
294 1 0.128315 0.276152 1.17253 0 -0.5 -4.94501 0.015 0 0 -0.346714 0.0353429 
180 1 0.0390912 0.0693712 1.21448 -0.021889 -0.504465 -4.85406 0.025 0 0 -1.60516 0.163625 
253 1 0.123075 0.161069 1.21733 0 -0.5 -4.85535 0.015 0 0 -0.346714 0.0353429 
231 1 0.0350342 0.27362 1.21174 0 -0.5 -4.86663 0.015 0 0 -0.346714 0.0353429 
209 1 0.0969746 0.0492476 1.26177 0 -0.5 -4.7647 0.015 0 0 -0.346714 0.0353429 
282 1 0.0251675 0.132327 1.24696 -0.2609 -0.673185 -4.77061 0.015 0 0 -0.346714 0.0353429 
169 1 0.0892107 0.282668 1.23364 0 -0.5 -4.82229 0.025 0 0 -1.60516 0.163625 
296 1 0.146983 0.165001 1.29676 0 -0.5 -4.69211 0.015 0 0 -0.346714 0.0353429 
278 1 0.113612 0.183965 1.29498 0 -0.5 -4.69584 0.015 0 0 -0.346714 0.0353429 
257 1 0.139837 0.296641 1.29545 0 -0.5 -4.69486 0.015 0 0 -0.346714 0.0353429 
235 1 0.134937 0.0523847 1.34608 0 -0.5 -4.58783 0.015 0 0 -0.346714 0.0353429 
168 1 0.0261487 0.0861037 1.3344 0 -0.5 -4.61275 0.025 0 0 -1.60516 0.163625 
269 1 0.141487 0.0815043 1.33163 0 -0.5 -4.61863 0.015 0 0 -0.346714 0.0353429 
185 1 0.0936576 0.130666 1.35273 0 -0.5 -4.5736 0.025 0 0 -1.60516 0.163625 
217 1 0.133752 0.131691 1.34461 0 -0.5 -4.59097 0.015 0 0 -0.346714 0.0353429 
182 1 0.114565 0.241779 1.34094 0 -0.5 -4.59882 0.025 0 0 -1.60516 0.163625 
162 1 0.0478022 0.286457 1.32668 0 -0.5 -4.62913 0.025 0 0 -1.60516 0.163625 
286 1 0.147755 0.33087 1.3436 0 -0.5 -4.59313 0.015 0 0 -0.346714 0.0353429 
176 1 0.0399362 0.338472 1.3447 0 -0.5 -4.59077 0.025 0 0 -1.60516 0.163625 
153 1 0.0895866 0.0467598 1.37673 0 -0.5 -4.52181 0.025 0 0 -1.60516 0.163625 
211 1 0.0694768 0.104972 1.39569 0 -0.5 -4.48051 0.015 0 0 -0.346714 0.0353429 
251 1 0.126174 0.199559 1.38917 0 -0.5 -4.49473 0.015 0 0 -0.346714 0.0353429 
291 1 0.140432 0.275523 1.41001 0 -0.5 -4.44902 0.015 0 0 -0.346714 0.0353429 
159 1 0.087245 0.334208 1.41131 0 -0.5 -4.44617 0.025 0 0 -1.60516 0.163625 
204 1 0.134881 0.0932481 1.4335 0 -0.5 -4.39693 0.015 0 0 -0.346714 0.0353429 
161 1 0.135356 0.15085 1.4325 0 -0.5 -4.39918 0.025 0 0 -1.60516 0.163625 
228 1 0.0279693 0.300593 1.44023 0 -0.5 -4.38192 0.015 0 0 -0.346714 0.0353429 
300 1 0.149285 0.32824 1.42373 0 -0.5 -4.4187 0.015 0 0 -0.346714 0.0353429 
175 1 0.0941494 0.0860588 1.46832 0 -0.5 -4.31854 0.025 0 0 -1.60516 0.163625 
230 1 0.118982 0.191372 1.44949 0 -0.5 -4.36112 0.015 0 0 -0.346714 0.0353429 
293 1 0.0548164 0.125145 1.50091 0 -0.5 -4.24389 0.015 0 0 -0.346714 0.0353429 
192 1 0.134392 0.249049 1.49159 0 -0.5 -4.26537 0.025 0 0 -1.60516 0.163625 
285 1 0.0870748 0.286259 1.4932 0 -0.5 -4.26165 0.015 0 0 -0.346714 0.0353429 
256 1 0.0868225 0.318057 1.48791 0 -0.5 -4.27381 0.015 0 0 -0.346714 0.0353429 
275 1 0.0211058 0.332962 1.50691 0 -0.5 -4.22996 0.015 0 0 -0.346714 0.0353429 
246 1 0.0494565 0.35301 1.49393 0 -0.5 -4.25998 0.015 0 0 -0.346714 0.0353429 
240 1 0.0956629 0.34988 1.49623 0 -0.5 -4.25468 0.015 0 0 -0.346714 0.0353429 
250 1 0.138716 0.332193 1.48534 0 -0.5 -4.2797 0.015 0 0 -0.346714 0.0353429 
202 1 0.126943 0.0841189 1.5369 0 -0.5 -4.15982 0.015 0 0 -0.346714 0.0353429 
299 1 0.0153001 0.109541 1.50861 0 -0.5 -4.22604 0.015 0 0 -0.346714 0.0353429 
200 1 0.112803 0.142149 1.52452 0 -0.5 -4.18895 0.025 0 0 -1.60516 0.163625 
255 1 0.0340792 0.300865 1.53057 0 -0.5 -4.17473 0.015 0 0 -0.346714 0.0353429 
252 1 0.131256 0.309424 1.53057 0 -0.5 -4.17473 0.015 0 0 -0.346714 0.0353429 
245 1 0.0868358 0.109715 1.54744 0 -0.5 -4.1349 0.015 0 0 -0.346714 0.0353429 
247 1 0.0532922 0.137565 1.56447 0 -0.5 -4.09429 0.015 0 0 -0.346714 0.0353429 
189 1 0.0509787 0.083512 1.57086 0 -0.5 -4.07898 0.025 0 0 -1.60516 0.163625 
154 1 0.116388 0.229122 1.58276 0 -0.5 -4.05024 0.025 0 0 -1.60516 0.163625 
190 1 0.11779 0.342732 1.59209 0 -0.5 -4.02758 0.025 0 0 -1.60516 0.163625 
287 1 0.130384 0.0743502 1.59913 0 -0.5 -4.01041 0.015 0 0 -0.346714 0.0353429 
288 1 0.0326968 0.119446 1.60921 0 -0.5 -3.98569 0.015 0 0 -0.346714 0.0353429 
295 1 0.103955 0.288828 1.61226 0 -0.5 -3.97814 0.015 0 0 -0.346714 0.0353429 
156 1 0.0411221 0.337187 1.6147 0 -0.5 -3.97215 0.025 0 0 -1.60516 0.163625 
210 1 0.0872868 0.0813864 1.63983 0 -0.5 -3.90957 0.015 0 0 -0.346714 0.0353429 
181 1 0.070397 0.120344 1.64733 0 -0.5 -3.89073 0.025 0 0 -1.60516 0.163625 
165 1 0.148355 0.172191 1.63628 0 -0.5 -3.91849 0.025 0 0 -1.60516 0.163625 
233 1 0.0406697 0.0992917 1.68828 0 -0.5 -3.78606 0.015 0 0 -0.346714 0.0353429 
260 1 0.0198171 0.12912 1.67535 0 -0.5 -3.81941 0.015 0 0 -0.346714 0.0353429 
152 1 0.089118 0.187144 1.66854 0 -0.5 -3.83687 0.025 0 0 -1.60516 0.163625 
279 1 0.11959 0.247322 1.67742 0 -0.5 -3.81411 0.015 0 0 -0.346714 0.0353429 
262 1 0.0888361 0.281008 1.68346 0 -0.5 -3.79852 0.015 0 0 -0.346714 0.0353429 
234 1 0.0945525 0.330871 1.67848 0 -0.5 -3.81137 0.015 0 0 -0.346714 0.0353429 
208 1 0.0680799 0.367251 1.6848 0 -0.5 -3.79508 0.015 0 0 -0.346714 0.0353429 
207 1 0.128901 0.298384 1.70107 0 -0.5 -3.7528 0.015 0 0 -0.346714 0.0353429 
194 1 0.131621 0.358036 1.69825 0 -0.5 -3.76016 0.025 0 0 -1.60516 0.163625 
223 1 0.0343911 0.380571 1.71581 0 -0.5 -3.71405 0.015 0 0 -0.346714 0.0353429 
212 1 0.0737637 0.112983 1.74256 0 -0.5 -3.64273 0.015 0 0 -0.346714 0.0353429 
236 1 0.111584 0.126462 1.74258 0 -0.5 -3.64264 0.015 0 0 -0.346714 0.0353429 
191 1 0.0609008 0.327599 1.74608 0 -0.5 -3.63322 0.025 0 0 -1.60516 0.163625 
178 1 0.0370442 0.097146 1.77384 0 -0.5 -3.55748 0.025 0 0 -1.60516 0.163625 
224 1 0.132465 0.155362 1.77397 0 -0.5 -3.55709 0.015 0 0 -0.346714 0.0353429 
242 1 0.131055 0.204908 1.76114 0 -0.5 -3.59231 0.015 0 0 -0.346714 0.0353429 
258 1 0.135516 0.108979 1.80893 0 -0.5 -3.45938 0.015 0 0 -0.346714 0.0353429 