ITEM: TIMESTEP
60000
ITEM: NUMBER OF ATOMS
600
ITEM: BOX BOUNDS mm mm mm
-1 1
-1 1
-0.893878 2.85
ITEM: ATOMS id type x y z vx vy vz radius fx fy fz mass 
68 1 -0.0997213 -0.0547286 -0.680342 0 -0.5 -7.79786 0.015 0 0 -0.346714 0.0353429 
137 1 -0.0907396 -0.00264933 -0.661635 -0.00924354 -0.479856 -7.775 0.015 0 0 -0.346714 0.0353429 
45 1 -0.0943793 -0.103762 -0.640085 0 -0.5 -7.74704 0.025 0 0 -1.60516 0.163625 
122 1 -0.0681433 -0.0513194 -0.639276 0.00811842 -0.517403 -7.74542 0.015 0 0 -0.346714 0.0353429 
33 1 -0.129286 0.136605 -0.648691 0 -0.5 -7.75793 0.025 0 0 -1.60516 0.163625 
119 1 -0.0370509 -0.114811 -0.598458 0 -0.5 -7.69417 0.015 0 0 -0.346714 0.0353429 
43 1 -0.116198 0.0477854 -0.610251 0 -0.5 -7.70917 0.025 0 0 -1.60516 0.163625 
111 1 -0.0487783 0.1801 -0.609405 0 -0.5 -7.7081 0.015 0 0 -0.346714 0.0353429 
89 1 -0.129145 -0.0356921 -0.564935 0 -0.5 -7.6513 0.015 0 0 -0.346714 0.0353429 
75 1 -0.0493142 -0.0643279 -0.573979 0 -0.5 -7.66287 0.015 0 0 -0.346714 0.0353429 
78 1 -0.0422369 0.143955 -0.587477 0 -0.5 -7.68014 0.015 0 0 -0.346714 0.0353429 
59 1 -0.0865612 0.0928678 -0.544924 0 -0.5 -7.62559 0.015 0 0 -0.346714 0.0353429 
92 1 -0.131017 0.187327 -0.523752 0 -0.5 -7.59832 0.015 0 0 -0.346714 0.0353429 
26 1 -0.0330489 0.0501944 -0.47321 0.14857 -0.341553 -7.56737 0.025 0 0 -1.60516 0.163625 
98 1 -0.147127 0.0364418 -0.445495 0 -0.5 -7.49659 0.015 0 0 -0.346714 0.0353429 
151 1 -0.0686397 0.118527 -0.446309 0 -0.5 -7.49767 0.015 0 0 -0.346714 0.0353429 
8 1 -0.104188 -0.096537 -0.421864 0 -0.5 -7.46559 0.025 0 0 -1.60516 0.163625 
3 1 -0.141317 0.101388 -0.411031 0 -0.5 -7.45137 0.025 0 0 -1.60516 0.163625 
72 1 -0.105673 0.138796 -0.392369 0 -0.5 -7.42674 0.015 0 0 -0.346714 0.0353429 
100 1 -0.0681017 -0.028079 -0.365463 0 -0.5 -7.39113 0.015 0 0 -0.346714 0.0353429 
140 1 -0.125739 0.0135564 -0.372198 0 -0.5 -7.40006 0.015 0 0 -0.346714 0.0353429 
118 1 -0.0372647 0.173681 -0.358377 0 -0.5 -7.38172 0.015 0 0 -0.346714 0.0353429 
40 1 -0.104474 0.190198 -0.37065 0 -0.5 -7.398 0.025 0 0 -1.60516 0.163625 
117 1 -0.0596227 -0.0849792 -0.337603 0 -0.5 -7.35405 0.015 0 0 -0.346714 0.0353429 
148 1 -0.198042 0.0674457 -0.322769 -0.171679 -0.397353 -7.40339 0.015 0 0 -0.346714 0.0353429 
51 1 -0.162992 -0.0739433 -0.302557 -0.0265052 -0.519812 -7.30215 0.025 0 0 -1.60516 0.163625 
282 1 -0.0416228 -0.0400087 -0.295773 -0.2609 -0.673185 -7.28197 0.015 0 0 -0.346714 0.0353429 
90 1 -0.146535 0.191667 -0.258679 0 -0.5 -7.24801 0.015 0 0 -0.346714 0.0353429 
60 1 -0.0770515 -0.0760724 -0.231938 0 -0.5 -7.21171 0.015 0 0 -0.346714 0.0353429 
11 1 -0.0955895 0.0906027 -0.242203 0.022917 -0.457889 -7.24087 0.025 0 0 -1.60516 0.163625 
50 1 -0.130982 0.148355 -0.229985 0 -0.5 -7.20906 0.025 0 0 -1.60516 0.163625 
105 1 -0.247256 0.0977257 -0.17465 -0.321192 -0.368687 -7.12458 0.015 0 0 -0.346714 0.0353429 
74 1 -0.0790012 0.135893 -0.185969 0 -0.5 -7.14893 0.015 0 0 -0.346714 0.0353429 
76 1 -0.0202065 0.16407 -0.165925 0 -0.5 -7.12136 0.015 0 0 -0.346714 0.0353429 
44 1 -0.125916 -0.0844035 -0.152563 0 -0.5 -7.10292 0.025 0 0 -1.60516 0.163625 
36 1 -0.103411 -0.0376875 -0.125503 0 -0.5 -7.06544 0.025 0 0 -1.60516 0.163625 
29 1 -0.0788351 0.178182 -0.133066 0 -0.5 -7.07594 0.025 0 0 -1.60516 0.163625 
54 1 -0.17418 -0.00777102 -0.096714 -0.0956439 -0.529683 -7.01414 0.015 0 0 -0.346714 0.0353429 
114 1 -0.0720942 -0.00748797 -0.0808213 -0.00040144 -0.499666 -7.00323 0.015 0 0 -0.346714 0.0353429 
113 1 -0.118506 0.213198 -0.050739 0 -0.5 -6.96087 0.015 0 0 -0.346714 0.0353429 
146 1 -0.109965 -0.0710837 -0.0145359 0 -0.5 -6.90966 0.015 0 0 -0.346714 0.0353429 
73 1 -0.0639552 -0.0582333 -0.0427255 0 -0.5 -6.94959 0.015 0 0 -0.346714 0.0353429 
2 1 -0.110349 0.0890712 -0.0355137 0 -0.5 -6.93938 0.025 0 0 -1.60516 0.163625 
12 1 -0.0363281 0.198336 -0.0164563 0 -0.5 -6.91241 0.025 0 0 -1.60516 0.163625 
88 1 -0.0666498 0.155919 0.00581775 0 -0.5 -6.88072 0.015 0 0 -0.346714 0.0353429 
99 1 -0.146283 -0.00648291 0.0357217 0 -0.5 -6.83795 0.015 0 0 -0.346714 0.0353429 
57 1 -0.120673 0.0450605 0.0196138 0 -0.5 -6.861 0.015 0 0 -0.346714 0.0353429 
10 1 -0.0650078 0.170132 0.0446965 0.0635655 -0.375939 -6.89464 0.025 0 0 -1.60516 0.163625 
34 1 -0.138562 0.162511 0.0729076 0 -0.5 -6.78439 0.025 0 0 -1.60516 0.163625 
66 1 -0.0281121 -0.0191772 0.0900378 0 -0.5 -6.75957 0.015 0 0 -0.346714 0.0353429 
83 1 -0.108229 0.023146 0.0801622 0 -0.5 -6.77389 0.015 0 0 -0.346714 0.0353429 
19 1 -0.0715757 0.00325238 0.084959 0 -0.5 -6.76692 0.025 0 0 -1.60516 0.163625 
71 1 -0.145263 0.206198 0.100647 0 -0.5 -6.74417 0.015 0 0 -0.346714 0.0353429 
81 1 -0.0343324 0.177656 0.105037 0.07636 -0.438847 -6.70708 0.015 0 0 -0.346714 0.0353429 
24 1 -0.138394 -0.0365481 0.139588 0 -0.5 -6.68727 0.025 0 0 -1.60516 0.163625 
67 1 -0.0183057 -0.0636113 0.123302 0 -0.5 -6.71111 0.015 0 0 -0.346714 0.0353429 
133 1 -0.127566 0.0799444 0.151078 0 -0.5 -6.67039 0.015 0 0 -0.346714 0.0353429 
95 1 -0.10482 0.167312 0.155671 0 -0.5 -6.66362 0.015 0 0 -0.346714 0.0353429 
39 1 -0.0696793 0.21701 0.155818 0 -0.5 -6.66343 0.025 0 0 -1.60516 0.163625 
103 1 -0.135939 0.00772232 0.188079 0 -0.5 -6.61575 0.015 0 0 -0.346714 0.0353429 
143 1 -0.11631 0.225682 0.199511 0 -0.5 -6.59878 0.015 0 0 -0.346714 0.0353429 
70 1 -0.107191 -0.0100756 0.204119 0 -0.5 -6.59191 0.015 0 0 -0.346714 0.0353429 
97 1 -0.0338223 -0.00685604 0.225238 0 -0.5 -6.56042 0.015 0 0 -0.346714 0.0353429 
115 1 -0.076478 0.0284311 0.225768 0 -0.5 -6.55964 0.015 0 0 -0.346714 0.0353429 
85 1 -0.13789 0.150015 0.228911 0 -0.5 -6.55493 0.015 0 0 -0.346714 0.0353429 
28 1 -0.0685748 -0.0339299 0.237033 0 -0.5 -6.54277 0.025 0 0 -1.60516 0.163625 
134 1 -0.137197 0.190367 0.249892 0 -0.5 -6.52344 0.015 0 0 -0.346714 0.0353429 
77 1 -0.0297287 0.218749 0.259078 0 -0.5 -6.50961 0.015 0 0 -0.346714 0.0353429 
120 1 -0.148569 0.239261 0.261697 0 -0.5 -6.50568 0.015 0 0 -0.346714 0.0353429 
96 1 -0.131998 -0.00691865 0.284338 0 -0.5 -6.47145 0.015 0 0 -0.346714 0.0353429 
126 1 -0.124526 0.0724306 0.267198 -0.0288748 -0.539424 -6.47827 0.015 0 0 -0.346714 0.0353429 
38 1 -0.121616 0.0341879 0.310724 0 -0.5 -6.43132 0.025 0 0 -1.60516 0.163625 
130 1 -0.0642546 0.0284407 0.359761 0 -0.5 -6.35608 0.015 0 0 -0.346714 0.0353429 
23 1 -0.134189 0.170519 0.358621 0 -0.5 -6.35785 0.025 0 0 -1.60516 0.163625 
31 1 -0.140814 -0.0291227 0.406716 0 -0.5 -6.28319 0.025 0 0 -1.60516 0.163625 
150 1 -0.100106 0.00520692 0.38833 0 -0.5 -6.31184 0.015 0 0 -0.346714 0.0353429 
18 1 -0.106015 0.235686 0.3899 0 -0.5 -6.30939 0.025 0 0 -1.60516 0.163625 
4 1 -0.0330873 0.248857 0.388903 0 -0.5 -6.31096 0.025 0 0 -1.60516 0.163625 
106 1 -0.143464 0.349214 0.411415 -0.0998962 -0.230395 -6.39193 0.015 0 0 -0.346714 0.0353429 
110 1 -0.0868918 -0.0395835 0.439819 0 -0.5 -6.2313 0.015 0 0 -0.346714 0.0353429 
93 1 -0.0244706 -0.0278422 0.456544 0 -0.5 -6.20491 0.015 0 0 -0.346714 0.0353429 
17 1 -0.134634 0.0860265 0.464973 0 -0.5 -6.19157 0.025 0 0 -1.60516 0.163625 
136 1 -0.0832352 0.179008 0.460888 0 -0.5 -6.19804 0.015 0 0 -0.346714 0.0353429 
30 1 -0.0481876 0.206857 0.470607 0 -0.5 -6.18264 0.025 0 0 -1.60516 0.163625 
109 1 -0.0676248 0.25408 0.469297 0 -0.5 -6.1847 0.015 0 0 -0.346714 0.0353429 
108 1 -0.089121 -0.00717649 0.521283 0 -0.5 -6.10171 0.015 0 0 -0.346714 0.0353429 
1 1 -0.150633 0.427163 0.50936 -0.021394 -0.0706631 -6.25689 0.025 0 0 -1.60516 0.163625 
69 1 -0.020474 0.0130825 0.548331 0 -0.5 -6.05805 0.015 0 0 -0.346714 0.0353429 
35 1 -0.146938 0.186792 0.556375 0 -0.5 -6.04501 0.025 0 0 -1.60516 0.163625 
102 1 -0.11709 -0.00710052 0.59368 0 -0.5 -5.98418 0.015 0 0 -0.346714 0.0353429 
139 1 -0.104092 0.050572 0.59349 0 -0.5 -5.98448 0.015 0 0 -0.346714 0.0353429 
144 1 -0.0691235 0.0534741 0.592364 0 -0.5 -5.98634 0.015 0 0 -0.346714 0.0353429 
149 1 -0.0347728 0.107524 0.581782 0.199959 -0.45766 -6.19165 0.015 0 0 -0.346714 0.0353429 
22 1 -0.102489 0.118306 0.587388 0 -0.5 -5.99448 0.025 0 0 -1.60516 0.163625 
14 1 -0.0571303 -0.0150245 0.606635 0 -0.5 -5.9629 0.025 0 0 -1.60516 0.163625 
141 1 -0.136875 0.0662642 0.624302 0 -0.5 -5.93376 0.015 0 0 -0.346714 0.0353429 
55 1 -0.0960001 0.224401 0.612281 -7.52477e-06 -0.49998 -5.95361 0.015 0 0 -0.346714 0.0353429 
94 1 -0.25188 0.212984 0.657049 -0.356499 -0.190573 -5.94115 0.015 0 0 -0.346714 0.0353429 
21 1 -0.0470047 0.2695 0.641696 0 -0.5 -5.90492 0.025 0 0 -1.60516 0.163625 
87 1 -0.113676 0.187588 0.659317 0 -0.5 -5.87559 0.015 0 0 -0.346714 0.0353429 
107 1 -0.141609 -0.0180523 0.690732 0 -0.5 -5.82291 0.015 0 0 -0.346714 0.0353429 
84 1 -0.116406 0.145786 0.717645 0 -0.5 -5.77739 0.015 0 0 -0.346714 0.0353429 
147 1 -0.100309 0.257431 0.709539 0 -0.5 -5.79112 0.015 0 0 -0.346714 0.0353429 
142 1 -0.0724928 0.00674781 0.747378 0 -0.5 -5.72667 0.015 0 0 -0.346714 0.0353429 
112 1 -0.073338 0.0652787 0.721737 0 -0.5 -5.77042 0.015 0 0 -0.346714 0.0353429 
47 1 -0.140465 0.22945 0.747492 0 -0.5 -5.72648 0.025 0 0 -1.60516 0.163625 
145 1 -0.0934491 0.222113 0.749903 0 -0.5 -5.72236 0.015 0 0 -0.346714 0.0353429 
6 1 -0.071914 0.054608 0.774483 0.101461 -0.428163 -5.68585 0.025 0 0 -1.60516 0.163625 
80 1 -0.102893 0.192893 0.768621 0 -0.5 -5.69018 0.015 0 0 -0.346714 0.0353429 
32 1 -0.172268 -0.0145764 0.805669 -0.0613285 -0.540948 -5.62291 0.025 0 0 -1.60516 0.163625 
135 1 -0.140472 0.0748926 0.80285 0 -0.5 -5.63083 0.015 0 0 -0.346714 0.0353429 
62 1 -0.0849655 0.282406 0.802527 0 -0.5 -5.63142 0.015 0 0 -0.346714 0.0353429 
138 1 -0.0317395 0.00931559 0.825294 0 -0.5 -5.59159 0.015 0 0 -0.346714 0.0353429 
128 1 -0.145291 0.159677 0.827259 0 -0.5 -5.58815 0.015 0 0 -0.346714 0.0353429 
15 1 -0.0770758 0.158972 0.813494 0.0430154 -0.390763 -5.57865 0.025 0 0 -1.60516 0.163625 
280 1 -0.0748908 0.44074 0.821019 -0.323138 -0.0374805 -5.6935 0.015 0 0 -0.346714 0.0353429 
121 1 -0.0679495 0.264078 0.850924 0 -0.5 -5.54646 0.015 0 0 -0.346714 0.0353429 
129 1 -0.0553418 0.0331994 0.894315 0 -0.5 -5.46916 0.015 0 0 -0.346714 0.0353429 
61 1 -0.0231802 0.00293476 0.924906 0 -0.5 -5.41403 0.015 0 0 -0.346714 0.0353429 
79 1 -0.0179342 0.0369843 0.925006 0 -0.5 -5.41383 0.015 0 0 -0.346714 0.0353429 
13 1 -0.146779 0.115821 0.911564 0 -0.5 -5.43816 0.025 0 0 -1.60516 0.163625 
101 1 -0.102489 0.125824 0.906762 0 -0.5 -5.44679 0.015 0 0 -0.346714 0.0353429 
91 1 -0.124131 0.222132 0.925549 0 -0.5 -5.41285 0.015 0 0 -0.346714 0.0353429 
37 1 -0.0716655 0.228665 0.906108 0 -0.5 -5.44797 0.025 0 0 -1.60516 0.163625 
46 1 -0.032303 0.290569 0.912266 0 -0.5 -5.43688 0.025 0 0 -1.60516 0.163625 
52 1 -0.100497 0.0184895 0.934625 0 -0.5 -5.39637 0.015 0 0 -0.346714 0.0353429 
5 1 -0.137704 0.0464118 0.947237 0 -0.5 -5.37341 0.025 0 0 -1.60516 0.163625 
7 1 -0.0712578 0.0854494 0.951156 0 -0.5 -5.36625 0.025 0 0 -1.60516 0.163625 
20 1 -0.124339 0.173888 0.943317 0 -0.5 -5.38058 0.025 0 0 -1.60516 0.163625 
86 1 -0.142939 0.215059 0.992391 0 -0.5 -5.29032 0.015 0 0 -0.346714 0.0353429 
58 1 -0.0969698 0.119891 1.01274 0 -0.5 -5.25246 0.015 0 0 -0.346714 0.0353429 
124 1 -0.136447 0.245377 1.01259 0 -0.5 -5.25275 0.015 0 0 -0.346714 0.0353429 
9 1 -0.0320364 0.249159 0.996416 0 -0.5 -5.28287 0.025 0 0 -1.60516 0.163625 
65 1 -0.147981 0.0230967 1.02881 0 -0.5 -5.22234 0.015 0 0 -0.346714 0.0353429 
41 1 -0.107908 0.300758 1.02579 0 -0.5 -5.22803 0.025 0 0 -1.60516 0.163625 
104 1 -0.138444 0.187217 1.07239 0 -0.5 -5.13984 0.015 0 0 -0.346714 0.0353429 
131 1 -0.025873 0.28804 1.06126 0 -0.5 -5.16103 0.015 0 0 -0.346714 0.0353429 
49 1 -0.0613084 0.0337105 1.11699 0 -0.5 -5.054 0.025 0 0 -1.60516 0.163625 
132 1 -0.0234712 0.0561681 1.09416 0 -0.5 -5.09815 0.015 0 0 -0.346714 0.0353429 
48 1 -0.144727 0.113852 1.09323 0 -0.5 -5.09991 0.025 0 0 -1.60516 0.163625 
53 1 -0.106432 0.15834 1.09569 0 -0.5 -5.0952 0.015 0 0 -0.346714 0.0353429 
16 1 -0.129915 0.257079 1.12058 0 -0.5 -5.04704 0.025 0 0 -1.60516 0.163625 
82 1 -0.0851821 0.247627 1.12789 0 -0.5 -5.03281 0.015 0 0 -0.346714 0.0353429 
27 1 -0.0637137 0.283885 1.12133 0 -0.5 -5.04556 0.025 0 0 -1.60516 0.163625 
63 1 -0.147823 0.313713 1.13862 0 -0.5 -5.01182 0.015 0 0 -0.346714 0.0353429 
25 1 -0.104447 0.0677853 1.1716 0 -0.5 -4.94687 0.025 0 0 -1.60516 0.163625 
127 1 -0.0304133 0.0796212 1.15865 0 -0.5 -4.97248 0.015 0 0 -0.346714 0.0353429 
56 1 -0.11556 0.311119 1.15849 0 -0.5 -4.97277 0.015 0 0 -0.346714 0.0353429 
42 1 -0.132916 0.160796 1.18806 0 -0.5 -4.91411 0.025 0 0 -1.60516 0.163625 
123 1 -0.11925 0.217492 1.19223 0 -0.5 -4.90577 0.015 0 0 -0.346714 0.0353429 
64 1 -0.145219 0.281177 1.20802 0 -0.5 -4.87408 0.015 0 0 -0.346714 0.0353429 
392 1 -0.0201822 0.0313766 1.22692 0 -0.5 -4.83592 0.015 0 0 -0.346714 0.0353429 
361 1 -0.0655065 0.0591594 1.22411 0 -0.5 -4.84161 0.015 0 0 -0.346714 0.0353429 
375 1 -0.132504 0.0962129 1.23474 0 -0.5 -4.82003 0.015 0 0 -0.346714 0.0353429 
391 1 -0.0665259 0.25819 1.22565 0 -0.5 -4.83847 0.015 0 0 -0.346714 0.0353429 
125 1 -0.0960051 0.273127 1.21014 0 -0.5 -4.86987 0.015 0 0 -0.346714 0.0353429 
353 1 -0.0778865 0.11251 1.25623 0 -0.5 -4.77608 0.015 0 0 -0.346714 0.0353429 
432 1 -0.110656 0.172023 1.26989 0 -0.5 -4.74793 0.015 0 0 -0.346714 0.0353429 
423 1 -0.035066 0.276352 1.26805 0 -0.5 -4.75175 0.015 0 0 -0.346714 0.0353429 
370 1 -0.0476722 0.330061 1.2562 0 -0.5 -4.77618 0.015 0 0 -0.346714 0.0353429 
449 1 -0.121601 0.0369702 1.28212 0 -0.5 -4.72262 0.015 0 0 -0.346714 0.0353429 
348 1 -0.0475064 0.0476817 1.3016 -0.0150753 -0.514502 -4.67847 0.025 0 0 -1.60516 0.163625 
409 1 -0.1116 0.144279 1.3092 0 -0.5 -4.66601 0.015 0 0 -0.346714 0.0353429 
434 1 -0.110177 0.304235 1.30682 0 -0.5 -4.67102 0.015 0 0 -0.346714 0.0353429 
304 1 -0.147639 0.270299 1.33554 0 -0.5 -4.61029 0.025 0 0 -1.60516 0.163625 
368 1 -0.0426125 0.0821031 1.38652 0 -0.5 -4.50052 0.015 0 0 -0.346714 0.0353429 
414 1 -0.12165 0.214412 1.36898 0 -0.5 -4.53858 0.015 0 0 -0.346714 0.0353429 
416 1 -0.148865 0.235752 1.38139 0 -0.5 -4.5117 0.015 0 0 -0.346714 0.0353429 
422 1 -0.0856494 0.298628 1.38473 0 -0.5 -4.50444 0.015 0 0 -0.346714 0.0353429 
327 1 -0.047146 0.307396 1.36363 0 -0.5 -4.55016 0.025 0 0 -1.60516 0.163625 
307 1 -0.141488 0.0763164 1.41393 0 -0.5 -4.44038 0.025 0 0 -1.60516 0.163625 
328 1 -0.101567 0.10736 1.40258 0 -0.5 -4.4654 0.025 0 0 -1.60516 0.163625 
342 1 -0.0942786 0.258007 1.40377 0 -0.5 -4.46275 0.025 0 0 -1.60516 0.163625 
441 1 -0.0895132 0.336957 1.41432 0 -0.5 -4.4395 0.015 0 0 -0.346714 0.0353429 
440 1 -0.074831 0.0586332 1.42711 0 -0.5 -4.41115 0.015 0 0 -0.346714 0.0353429 
388 1 -0.0545692 0.122686 1.45471 0 -0.5 -4.34935 0.015 0 0 -0.346714 0.0353429 
323 1 -0.131477 0.191813 1.45276 0 -0.5 -4.35376 0.025 0 0 -1.60516 0.163625 
352 1 -0.144025 0.295939 1.43777 0 -0.5 -4.38741 0.015 0 0 -0.346714 0.0353429 
330 1 -0.125578 0.352028 1.4421 0 -0.5 -4.3777 0.025 0 0 -1.60516 0.163625 
406 1 -0.0920408 0.295666 1.46287 0 -0.5 -4.33091 0.015 0 0 -0.346714 0.0353429 
331 1 -0.138106 0.063831 1.51486 0 -0.5 -4.21152 0.025 0 0 -1.60516 0.163625 
418 1 -0.0554251 0.0689403 1.50187 0 -0.5 -4.24163 0.015 0 0 -0.346714 0.0353429 
395 1 -0.110093 0.119872 1.5087 0 -0.5 -4.22584 0.015 0 0 -0.346714 0.0353429 
318 1 -0.126425 0.269158 1.49955 0 -0.5 -4.24703 0.025 0 0 -1.60516 0.163625 
336 1 -0.025747 0.302523 1.50784 0 -0.5 -4.2278 0.025 0 0 -1.60516 0.163625 
313 1 -0.0392615 0.107689 1.52787 0 -0.5 -4.18111 0.025 0 0 -1.60516 0.163625 
374 1 -0.133879 0.329467 1.53016 0 -0.5 -4.17571 0.015 0 0 -0.346714 0.0353429 
315 1 -0.0970947 0.174406 1.55083 0 -0.5 -4.12686 0.025 0 0 -1.60516 0.163625 
445 1 -0.0938501 0.244643 1.56604 0 -0.5 -4.09056 0.015 0 0 -0.346714 0.0353429 
407 1 -0.0713596 0.302089 1.55224 0 -0.5 -4.12352 0.015 0 0 -0.346714 0.0353429 
310 1 -0.0919271 0.339993 1.54798 0 -0.5 -4.13363 0.025 0 0 -1.60516 0.163625 
377 1 -0.128279 0.0917203 1.58884 0 -0.5 -4.03553 0.015 0 0 -0.346714 0.0353429 
344 1 -0.147144 0.245445 1.60456 0 -0.5 -3.99707 0.025 0 0 -1.60516 0.163625 
386 1 -0.118095 0.31311 1.58495 0 -0.5 -4.04494 0.015 0 0 -0.346714 0.0353429 
302 1 -0.0567477 0.0893163 1.62293 0 -0.5 -3.95175 0.025 0 0 -1.60516 0.163625 
401 1 -0.0913429 0.12078 1.621 0 -0.5 -3.95656 0.015 0 0 -0.346714 0.0353429 
314 1 -0.136534 0.157236 1.63168 0 -0.5 -3.92997 0.025 0 0 -1.60516 0.163625 
439 1 -0.132801 0.207897 1.61806 0 -0.5 -3.96381 0.015 0 0 -0.346714 0.0353429 
431 1 -0.13363 0.117651 1.65941 0 -0.5 -3.86012 0.015 0 0 -0.346714 0.0353429 
355 1 -0.0483468 0.136759 1.65233 0 -0.5 -3.87808 0.015 0 0 -0.346714 0.0353429 
354 1 -0.0927402 0.305498 1.65787 0 -0.5 -3.86405 0.015 0 0 -0.346714 0.0353429 
413 1 -0.0512121 0.306816 1.64634 0 -0.5 -3.89318 0.015 0 0 -0.346714 0.0353429 
442 1 -0.149932 0.366171 1.64764 0 -0.5 -3.88995 0.015 0 0 -0.346714 0.0353429 
408 1 -0.087028 0.374439 1.65644 0 -0.5 -3.86768 0.015 0 0 -0.346714 0.0353429 
446 1 -0.116317 0.274626 1.68015 0 -0.5 -3.80705 0.015 0 0 -0.346714 0.0353429 
411 1 -0.0485728 0.357056 1.68779 0 -0.5 -3.78733 0.015 0 0 -0.346714 0.0353429 
382 1 -0.107217 0.391896 1.67797 0.026541 -0.439017 -3.90327 0.015 0 0 -0.346714 0.0353429 
350 1 -0.147794 0.127395 1.73157 0 -0.5 -3.67216 0.025 0 0 -1.60516 0.163625 
399 1 -0.074527 0.140048 1.72043 0 -0.5 -3.70179 0.015 0 0 -0.346714 0.0353429 
335 1 -0.126459 0.188418 1.73136 0 -0.5 -3.67275 0.025 0 0 -1.60516 0.163625 
436 1 -0.0854574 0.194951 1.7198 0 -0.5 -3.70346 0.015 0 0 -0.346714 0.0353429 
341 1 -0.148816 0.308228 1.7224 0 -0.5 -3.69659 0.025 0 0 -1.60516 0.163625 
389 1 -0.0230912 0.381676 1.72351 0 -0.5 -3.69365 0.015 0 0 -0.346714 0.0353429 
427 1 -0.101483 0.420023 1.71196 0.0988458 -0.172977 -3.9405 0.015 0 0 -0.346714 0.0353429 
324 1 -0.0498553 0.0947032 1.74091 0 -0.5 -3.64715 0.025 0 0 -1.60516 0.163625 
437 1 -0.0723044 0.171232 1.74808 0 -0.5 -3.62782 0.015 0 0 -0.346714 0.0353429 
385 1 -0.0696212 0.317365 1.73781 0 -0.5 -3.65549 0.015 0 0 -0.346714 0.0353429 
384 1 -0.164758 0.39667 1.73478 -0.135564 -0.440896 -3.68659 0.015 0 0 -0.346714 0.0353429 
367 1 -0.106717 0.151831 1.78134 0 -0.5 -3.53669 0.015 0 0 -0.346714 0.0353429 
394 1 -0.145405 0.346684 1.77063 0 -0.5 -3.56631 0.015 0 0 -0.346714 0.0353429 
424 1 -0.128643 0.371039 1.78832 -0.0730123 -0.390635 -3.52794 0.015 0 0 -0.346714 0.0353429 
426 1 -0.0179373 0.376964 1.78097 0 -0.5 -3.53777 0.015 0 0 -0.346714 0.0353429 
319 1 -0.0687817 0.398025 1.79223 0 -0.5 -3.50637 0.025 0 0 -1.60516 0.163625 
358 1 -0.127277 0.118792 1.79472 0 -0.5 -3.49941 0.015 0 0 -0.346714 0.0353429 
376 1 -0.0824761 0.163772 1.81372 0 -0.5 -3.44575 0.015 0 0 -0.346714 0.0353429 
326 1 -0.145564 0.248454 1.79633 0 -0.5 -3.4949 0.025 0 0 -1.60516 0.163625 
433 1 -0.118613 0.104665 1.83654 0 -0.5 -3.38012 0.015 0 0 -0.346714 0.0353429 
420 1 -0.037203 0.112826 1.83986 0 -0.5 -3.37051 0.015 0 0 -0.346714 0.0353429 
402 1 -0.101682 0.148287 1.84306 0 -0.5 -3.36119 0.015 0 0 -0.346714 0.0353429 
306 1 -0.116739 0.326034 1.84201 0 -0.5 -3.36423 0.025 0 0 -1.60516 0.163625 
412 1 -0.0937388 0.396584 1.84722 0 -0.5 -3.34902 0.015 0 0 -0.346714 0.0353429 
363 1 -0.0911777 0.225327 1.86374 0 -0.5 -3.30027 0.015 0 0 -0.346714 0.0353429 
360 1 -0.116599 0.249221 1.86229 0 -0.5 -3.30458 0.015 0 0 -0.346714 0.0353429 
397 1 -0.0557758 0.337618 1.86709 0 -0.5 -3.29026 0.015 0 0 -0.346714 0.0353429 
371 1 -0.0449321 0.376104 1.8608 0 -0.5 -3.309 0.015 0 0 -0.346714 0.0353429 
322 1 -0.131733 0.135564 1.89079 0 -0.5 -3.21884 0.025 0 0 -1.60516 0.163625 
398 1 -0.0128422 0.220512 1.90343 0.308366 -0.162474 -3.22271 0.015 0 0 -0.346714 0.0353429 
373 1 -0.136858 0.282184 1.89869 0 -0.5 -3.19471 0.015 0 0 -0.346714 0.0353429 
396 1 -0.0958984 0.30266 1.8926 0 -0.5 -3.21335 0.015 0 0 -0.346714 0.0353429 
369 1 -0.138958 0.340563 1.90111 0 -0.5 -3.18726 0.015 0 0 -0.346714 0.0353429 
381 1 -0.0827007 0.371114 1.88787 0 -0.5 -3.22777 0.015 0 0 -0.346714 0.0353429 
383 1 -0.0262689 0.358803 1.90204 0 -0.5 -3.18441 0.015 0 0 -0.346714 0.0353429 
308 1 -0.0774496 0.152293 1.92103 -0.0168546 -0.516386 -3.12321 0.025 0 0 -1.60516 0.163625 
415 1 -0.127182 0.18613 1.93969 0 -0.5 -3.0662 0.015 0 0 -0.346714 0.0353429 
438 1 -0.0987495 0.234333 1.92218 0 -0.5 -3.12172 0.015 0 0 -0.346714 0.0353429 
343 1 -0.140775 0.244899 1.94572 0 -0.5 -3.04687 0.025 0 0 -1.60516 0.163625 
356 1 -0.111476 0.277564 1.92818 0 -0.5 -3.10279 0.015 0 0 -0.346714 0.0353429 
443 1 -0.0906469 0.332658 1.93796 0 -0.5 -3.07169 0.015 0 0 -0.346714 0.0353429 
340 1 -0.149237 0.405237 1.92775 0 -0.5 -3.10416 0.025 0 0 -1.60516 0.163625 
390 1 -0.0988461 0.14659 1.97137 0 -0.5 -2.9631 0.015 0 0 -0.346714 0.0353429 
349 1 -0.116564 0.364594 1.94909 0 -0.5 -3.03599 0.025 0 0 -1.60516 0.163625 
351 1 -0.0409452 0.363112 1.95303 0 -0.5 -3.02323 0.015 0 0 -0.346714 0.0353429 
448 1 -0.0329565 0.15557 1.98996 0 -0.5 -2.9009 0.015 0 0 -0.346714 0.0353429 
347 1 -0.0548177 0.19289 1.99476 0 -0.5 -2.88462 0.025 0 0 -1.60516 0.163625 
378 1 -0.121409 0.241198 2.00037 0 -0.5 -2.86549 0.015 0 0 -0.346714 0.0353429 
312 1 -0.134707 0.300718 2.0013 0 -0.5 -2.86235 0.025 0 0 -1.60516 0.163625 
359 1 -0.107325 0.345399 2.00745 0 -0.5 -2.84116 0.015 0 0 -0.346714 0.0353429 
417 1 -0.0160313 0.400054 2.00128 0 -0.5 -2.86235 0.015 0 0 -0.346714 0.0353429 
346 1 -0.151159 0.435043 2.00194 -0.0151472 -0.325165 -2.92078 0.025 0 0 -1.60516 0.163625 
419 1 -0.111609 0.137519 2.01537 0 -0.5 -2.81369 0.015 0 0 -0.346714 0.0353429 
362 1 -0.0154426 0.187609 2.01299 0 -0.5 -2.82193 0.015 0 0 -0.346714 0.0353429 
421 1 -0.0930175 0.217542 2.02705 0 -0.5 -2.77268 0.015 0 0 -0.346714 0.0353429 
303 1 -0.0551599 0.364479 2.01334 0 -0.5 -2.82075 0.025 0 0 -1.60516 0.163625 
334 1 -0.103439 0.400448 2.02207 0 -0.5 -2.79024 0.025 0 0 -1.60516 0.163625 
320 1 -0.0648735 0.176929 2.06875 0 -0.5 -2.62092 0.025 0 0 -1.60516 0.163625 
325 1 -0.117824 0.261025 2.05714 0 -0.5 -2.66409 0.025 0 0 -1.60516 0.163625 
365 1 -0.144459 0.361402 2.04583 0.0322739 -0.84426 -2.5855 0.015 0 0 -0.346714 0.0353429 
372 1 -0.0702168 0.360237 2.07316 0 -0.5 -2.60444 0.015 0 0 -0.346714 0.0353429 
447 1 -0.122284 0.441789 2.06947 0 -0.5 -2.61828 0.015 0 0 -0.346714 0.0353429 
309 1 -0.144284 0.176031 2.08129 0 -0.5 -2.57364 0.025 0 0 -1.60516 0.163625 
379 1 -0.0327871 0.178329 2.10402 0 -0.5 -2.48545 0.015 0 0 -0.346714 0.0353429 
430 1 -0.123083 0.223393 2.08968 0 -0.5 -2.54136 0.015 0 0 -0.346714 0.0353429 
403 1 -0.0833248 0.229397 2.09216 0 -0.5 -2.53185 0.015 0 0 -0.346714 0.0353429 
387 1 -0.0901615 0.338452 2.08401 0 -0.5 -2.56324 0.015 0 0 -0.346714 0.0353429 
393 1 -0.015571 0.400279 2.10106 0 -0.5 -2.49712 0.015 0 0 -0.346714 0.0353429 
338 1 -0.0583644 0.429556 2.08282 0 -0.5 -2.56775 0.025 0 0 -1.60516 0.163625 
316 1 -0.0983119 0.162111 2.13122 0 -0.5 -2.37567 0.025 0 0 -1.60516 0.163625 
357 1 -0.0584785 0.227214 2.12625 0 -0.5 -2.39608 0.015 0 0 -0.346714 0.0353429 
301 1 -0.0879841 0.401909 2.13234 0.012148 -0.512208 -2.37105 0.025 0 0 -1.60516 0.163625 
329 1 -0.12398 0.438191 2.12936 -0.0138001 -0.485947 -2.38346 0.025 0 0 -1.60516 0.163625 
364 1 -0.0453235 0.192807 2.14085 0 -0.5 -2.33555 0.015 0 0 -0.346714 0.0353429 
321 1 -0.126579 0.233251 2.14164 0 -0.5 -2.33222 0.025 0 0 -1.60516 0.163625 
410 1 -0.145474 0.282536 2.14523 0 -0.5 -2.31711 0.015 0 0 -0.346714 0.0353429 
333 1 -0.0978849 0.295337 2.14241 0 -0.5 -2.32898 0.025 0 0 -1.60516 0.163625 
380 1 -0.127355 0.337976 2.137 0 -0.5 -2.35164 0.015 0 0 -0.346714 0.0353429 
337 1 -0.142368 0.378838 2.15388 0 -0.5 -2.28022 0.025 0 0 -1.60516 0.163625 
428 1 -0.0387226 0.412002 2.13619 0 -0.5 -2.35507 0.015 0 0 -0.346714 0.0353429 
450 1 -0.0322061 0.456898 2.13717 0 -0.5 -2.35095 0.015 0 0 -0.346714 0.0353429 
425 1 -0.074083 0.170787 2.19499 0 -0.5 -2.09589 0.015 0 0 -0.346714 0.0353429 
332 1 -0.0814262 0.224266 2.18409 0 -0.5 -2.14622 0.025 0 0 -1.60516 0.163625 
400 1 -0.135353 0.267905 2.18691 0 -0.5 -2.13337 0.015 0 0 -0.346714 0.0353429 
366 1 -0.144217 0.387022 2.19859 0 -0.5 -2.07892 0.015 0 0 -0.346714 0.0353429 
339 1 -0.0802774 0.43266 2.19458 0 -0.5 -2.09776 0.025 0 0 -1.60516 0.163625 
305 1 -0.0452536 0.469472 2.19498 0 -0.5 -2.09589 0.025 0 0 -1.60516 0.163625 
404 1 -0.119976 0.191844 2.21138 0 -0.5 -2.01771 0.015 0 0 -0.346714 0.0353429 
311 1 -0.0354402 0.186368 2.20299 0 -0.5 -2.05803 0.025 0 0 -1.60516 0.163625 
345 1 -0.128178 0.234674 2.20882 0 -0.5 -2.03007 0.025 0 0 -1.60516 0.163625 
435 1 -0.0960728 0.271976 2.21171 0 -0.5 -2.01614 0.015 0 0 -0.346714 0.0353429 
317 1 -0.129905 0.310055 2.2004 0 -0.5 -2.07039 0.025 0 0 -1.60516 0.163625 
405 1 -0.038992 0.42139 2.20287 0 -0.5 -2.05861 0.015 0 0 -0.346714 0.0353429 
444 1 -0.0159467 0.465681 2.2236 -0 0 -2 0.015 0 0 0 0.0353429 
289 1 0.103851 0.213322 -0.896776 0.0203384 -0.134604 -8.17615 0.015 0 0 -0.346714 0.0353429 
284 1 0.0625421 -0.136354 -0.708177 -0.0310215 -0.613333 -7.87087 0.015 0 0 -0.346714 0.0353429 
206 1 0.113131 -0.0990557 -0.655463 0.057048 -0.582454 -7.79533 0.015 0 0 -0.346714 0.0353429 
199 1 0.0892135 0.0795703 -0.670876 -0.00278668 -0.321029 -7.84781 0.025 0 0 -1.60516 0.163625 
203 1 0.0667127 -0.116767 -0.643717 0 -0.5 -7.75165 0.015 0 0 -0.346714 0.0353429 
214 1 0.144386 0.0697332 -0.629324 0 -0.5 -7.73341 0.015 0 0 -0.346714 0.0353429 
213 1 0.0350777 0.12257 -0.643498 0 -0.5 -7.75136 0.015 0 0 -0.346714 0.0353429 
272 1 0.0168276 0.157548 -0.650617 0 -0.5 -7.76038 0.015 0 0 -0.346714 0.0353429 
241 1 0.0849537 0.153018 -0.622439 0 -0.5 -7.72467 0.015 0 0 -0.346714 0.0353429 
259 1 0.149131 -0.0761735 -0.605237 0 -0.5 -7.7028 0.015 0 0 -0.346714 0.0353429 
237 1 0.146357 -0.0456707 -0.609619 0.0724848 -0.475593 -7.70033 0.015 0 0 -0.346714 0.0353429 
171 1 0.100777 0.0877232 -0.613166 0.0549768 -0.472606 -7.77664 0.025 0 0 -1.60516 0.163625 
226 1 0.110692 0.131304 -0.61371 0 -0.5 -7.71359 0.015 0 0 -0.346714 0.0353429 
263 1 0.025742 -0.0555063 -0.58725 0 -0.5 -7.67984 0.015 0 0 -0.346714 0.0353429 
220 1 0.00172405 -0.11334 -0.542837 -0.0669262 -0.554313 -7.61763 0.015 0 0 -0.346714 0.0353429 
116 1 0.084811 0.0827006 -0.546036 0.110827 -0.413989 -7.40014 0.015 0 0 -0.346714 0.0353429 
177 1 0.185957 0.0801435 -0.547312 0.112606 -0.398162 -7.63264 0.025 0 0 -1.60516 0.163625 
290 1 0.16065 0.16223 -0.47486 0.0439512 -0.299137 -7.50628 0.015 0 0 -0.346714 0.0353429 
166 1 0.0609489 0.187253 -0.483317 0 -0.5 -7.54594 0.025 0 0 -1.60516 0.163625 
184 1 0.11251 0.185841 -0.492465 0 -0.5 -7.55781 0.025 0 0 -1.60516 0.163625 
249 1 0.0491797 0.123421 -0.458032 0 -0.5 -7.51297 0.015 0 0 -0.346714 0.0353429 
270 1 0.0946744 0.115669 -0.438301 0 -0.5 -7.48717 0.015 0 0 -0.346714 0.0353429 
294 1 0.128315 0.148152 -0.414843 0 -0.5 -7.45637 0.015 0 0 -0.346714 0.0353429 
216 1 0.101657 -0.107153 -0.391962 0.0481324 -0.610657 -7.41001 0.015 0 0 -0.346714 0.0353429 
222 1 0.123753 -0.0743386 -0.408588 0 -0.5 -7.44813 0.015 0 0 -0.346714 0.0353429 
170 1 0.220038 0.139673 -0.378838 0.161731 -0.381986 -7.41971 0.025 0 0 -1.60516 0.163625 
180 1 0.0334876 -0.0597719 -0.349617 -0.021889 -0.504465 -7.36542 0.025 0 0 -1.60516 0.163625 
231 1 0.0350342 0.14562 -0.355569 0 -0.5 -7.37799 0.015 0 0 -0.346714 0.0353429 
253 1 0.123075 0.0330692 -0.347097 0 -0.5 -7.36671 0.015 0 0 -0.346714 0.0353429 
169 1 0.0892107 0.154668 -0.322321 0 -0.5 -7.33365 0.025 0 0 -1.60516 0.163625 
209 1 0.0969746 -0.0787524 -0.279447 0 -0.5 -7.27606 0.015 0 0 -0.346714 0.0353429 
278 1 0.113612 0.0559651 -0.228613 0 -0.5 -7.2072 0.015 0 0 -0.346714 0.0353429 
257 1 0.139837 0.168641 -0.227884 0 -0.5 -7.20622 0.015 0 0 -0.346714 0.0353429 
296 1 0.146983 0.037001 -0.225874 0 -0.5 -7.20347 0.015 0 0 -0.346714 0.0353429 
168 1 0.0261487 -0.0418963 -0.167915 0 -0.5 -7.12411 0.025 0 0 -1.60516 0.163625 
269 1 0.141487 -0.0464957 -0.172197 0 -0.5 -7.12999 0.015 0 0 -0.346714 0.0353429 
162 1 0.0478022 0.158457 -0.179826 0 -0.5 -7.14049 0.025 0 0 -1.60516 0.163625 
235 1 0.134937 -0.0756153 -0.149858 0 -0.5 -7.09919 0.015 0 0 -0.346714 0.0353429 
185 1 0.0936576 0.00266613 -0.139564 0 -0.5 -7.08496 0.025 0 0 -1.60516 0.163625 
217 1 0.133752 0.00369121 -0.152127 0 -0.5 -7.10233 0.015 0 0 -0.346714 0.0353429 
182 1 0.114565 0.113779 -0.157809 0 -0.5 -7.11018 0.025 0 0 -1.60516 0.163625 
286 1 0.147755 0.20287 -0.153691 0 -0.5 -7.10449 0.015 0 0 -0.346714 0.0353429 
176 1 0.0399362 0.210472 -0.151994 0 -0.5 -7.10213 0.025 0 0 -1.60516 0.163625 
153 1 0.0895866 -0.0812402 -0.102306 0 -0.5 -7.03317 0.025 0 0 -1.60516 0.163625 
251 1 0.126174 0.0715588 -0.0829309 0 -0.5 -7.00609 0.015 0 0 -0.346714 0.0353429 
211 1 0.0694768 -0.0230284 -0.0727765 0 -0.5 -6.99187 0.015 0 0 -0.346714 0.0353429 
291 1 0.140432 0.147523 -0.0503895 0 -0.5 -6.96038 0.015 0 0 -0.346714 0.0353429 
159 1 0.087245 0.206208 -0.048365 0 -0.5 -6.95753 0.025 0 0 -1.60516 0.163625 
204 1 0.134881 -0.0347519 -0.0135695 0 -0.5 -6.90829 0.015 0 0 -0.346714 0.0353429 
161 1 0.135356 0.0228496 -0.0151487 0 -0.5 -6.91054 0.025 0 0 -1.60516 0.163625 
300 1 0.149285 0.20024 -0.0289165 0 -0.5 -6.93006 0.015 0 0 -0.346714 0.0353429 
230 1 0.118982 0.0633718 0.011591 0 -0.5 -6.87248 0.015 0 0 -0.346714 0.0353429 
228 1 0.0279693 0.172593 -0.00299853 0 -0.5 -6.89328 0.015 0 0 -0.346714 0.0353429 
175 1 0.0941494 -0.0419412 0.041319 0 -0.5 -6.8299 0.025 0 0 -1.60516 0.163625 
192 1 0.134392 0.121049 0.0781966 0 -0.5 -6.77673 0.025 0 0 -1.60516 0.163625 
256 1 0.0868225 0.190057 0.0723556 0 -0.5 -6.78517 0.015 0 0 -0.346714 0.0353429 
250 1 0.138716 0.204193 0.0682829 0 -0.5 -6.79106 0.015 0 0 -0.346714 0.0353429 
299 1 0.0153001 -0.0184588 0.105286 0 -0.5 -6.7374 0.015 0 0 -0.346714 0.0353429 
293 1 0.0548164 -0.00285479 0.0930161 0 -0.5 -6.75525 0.015 0 0 -0.346714 0.0353429 
285 1 0.0870748 0.158259 0.0807678 0 -0.5 -6.77301 0.015 0 0 -0.346714 0.0353429 
275 1 0.0211058 0.204962 0.102585 0 -0.5 -6.74132 0.015 0 0 -0.346714 0.0353429 
246 1 0.0494565 0.22501 0.0819203 0 -0.5 -6.77134 0.015 0 0 -0.346714 0.0353429 