ITEM: TIMESTEP
100000
ITEM: NUMBER OF ATOMS
1200
ITEM: BOX BOUNDS mm mm mm
-1 1
-1 1
-4.94894 2.85
ITEM: ATOMS id type x y z vx vy vz radius fx fy fz mass 
68 1 -0.0997213 -0.254729 -4.58428 0 -0.5 -11.7219 0.015 0 0 -0.346714 0.0353429 
137 1 -0.094437 -0.194592 -4.55644 -0.00924354 -0.479856 -11.699 0.015 0 0 -0.346714 0.0353429 
33 1 -0.129286 -0.0633953 -4.53666 0 -0.5 -11.6819 0.025 0 0 -1.60516 0.163625 
45 1 -0.0943793 -0.303762 -4.5237 0 -0.5 -11.671 0.025 0 0 -1.60516 0.163625 
122 1 -0.0648959 -0.258281 -4.52224 0.00811842 -0.517403 -11.6694 0.015 0 0 -0.346714 0.0353429 
43 1 -0.116198 -0.152215 -4.47872 0 -0.5 -11.6332 0.025 0 0 -1.60516 0.163625 
111 1 -0.0487783 -0.0199 -4.47744 0 -0.5 -11.6321 0.015 0 0 -0.346714 0.0353429 
119 1 -0.0370509 -0.314811 -4.46092 0 -0.5 -11.6182 0.015 0 0 -0.346714 0.0353429 
78 1 -0.0422369 -0.0560449 -4.44433 0 -0.5 -11.6041 0.015 0 0 -0.346714 0.0353429 
75 1 -0.0493142 -0.264328 -4.42393 0 -0.5 -11.5869 0.015 0 0 -0.346714 0.0353429 
89 1 -0.129145 -0.235692 -4.41025 0 -0.5 -11.5753 0.015 0 0 -0.346714 0.0353429 
59 1 -0.0865612 -0.107132 -4.37996 0 -0.5 -11.5496 0.015 0 0 -0.346714 0.0353429 
220 1 -0.0250464 -0.335065 -4.37469 -0.0669262 -0.554313 -11.5416 0.015 0 0 -0.346714 0.0353429 
92 1 -0.131017 -0.0126728 -4.34788 0 -0.5 -11.5223 0.015 0 0 -0.346714 0.0353429 
98 1 -0.147127 -0.163558 -4.22893 0 -0.5 -11.4206 0.015 0 0 -0.346714 0.0353429 
151 1 -0.0686397 -0.081473 -4.23018 0 -0.5 -11.4217 0.015 0 0 -0.346714 0.0353429 
8 1 -0.104188 -0.296537 -4.1929 0 -0.5 -11.3896 0.025 0 0 -1.60516 0.163625 
3 1 -0.141317 -0.0986121 -4.17638 0 -0.5 -11.3754 0.025 0 0 -1.60516 0.163625 
72 1 -0.105673 -0.061204 -4.14787 0 -0.5 -11.3507 0.015 0 0 -0.346714 0.0353429 
100 1 -0.0681017 -0.228079 -4.10672 0 -0.5 -11.3151 0.015 0 0 -0.346714 0.0353429 
140 1 -0.125739 -0.186444 -4.11702 0 -0.5 -11.3241 0.015 0 0 -0.346714 0.0353429 
40 1 -0.104474 -0.00980176 -4.11465 0 -0.5 -11.322 0.025 0 0 -1.60516 0.163625 
118 1 -0.0372647 -0.0263189 -4.09586 0 -0.5 -11.3057 0.015 0 0 -0.346714 0.0353429 
117 1 -0.0596227 -0.284979 -4.06402 0 -0.5 -11.2781 0.015 0 0 -0.346714 0.0353429 
148 1 -0.266714 -0.0914953 -4.06893 -0.171679 -0.397353 -11.3274 0.015 0 0 -0.346714 0.0353429 
51 1 -0.173594 -0.281868 -4.00822 -0.0265052 -0.519812 -11.2261 0.025 0 0 -1.60516 0.163625 
282 1 -0.145983 -0.309283 -3.99336 -0.2609 -0.673185 -11.206 0.015 0 0 -0.346714 0.0353429 
11 1 -0.0864227 -0.0925527 -3.92335 0.022917 -0.457889 -11.1649 0.025 0 0 -1.60516 0.163625 
90 1 -0.146535 -0.00833309 -3.94268 0 -0.5 -11.172 0.015 0 0 -0.346714 0.0353429 
60 1 -0.0770515 -0.276072 -3.90142 0 -0.5 -11.1357 0.015 0 0 -0.346714 0.0353429 
50 1 -0.130982 -0.0516451 -3.89841 0 -0.5 -11.1331 0.025 0 0 -1.60516 0.163625 
105 1 -0.375733 -0.0497491 -3.80928 -0.321192 -0.368687 -11.0486 0.015 0 0 -0.346714 0.0353429 
74 1 -0.0790012 -0.0641066 -3.83034 0 -0.5 -11.0729 0.015 0 0 -0.346714 0.0353429 
44 1 -0.125916 -0.284403 -3.77853 0 -0.5 -11.0269 0.025 0 0 -1.60516 0.163625 
76 1 -0.0202065 -0.03593 -3.79927 0 -0.5 -11.0454 0.015 0 0 -0.346714 0.0353429 
29 1 -0.0788351 -0.0218179 -3.74824 0 -0.5 -10.9999 0.025 0 0 -1.60516 0.163625 
36 1 -0.103411 -0.237688 -3.73648 0 -0.5 -10.9894 0.025 0 0 -1.60516 0.163625 
54 1 -0.212438 -0.219644 -3.68717 -0.0956439 -0.529683 -10.9381 0.015 0 0 -0.346714 0.0353429 
114 1 -0.0722548 -0.207354 -3.66692 -0.00040144 -0.499666 -10.9272 0.015 0 0 -0.346714 0.0353429 
113 1 -0.118506 0.0131977 -3.61989 0 -0.5 -10.8849 0.015 0 0 -0.346714 0.0353429 
73 1 -0.0639552 -0.258233 -3.60736 0 -0.5 -10.8736 0.015 0 0 -0.346714 0.0353429 
2 1 -0.110349 -0.110929 -3.59607 0 -0.5 -10.8634 0.025 0 0 -1.60516 0.163625 
146 1 -0.109965 -0.271084 -3.5632 0 -0.5 -10.8337 0.015 0 0 -0.346714 0.0353429 
12 1 -0.0363281 -0.00166411 -3.56622 0 -0.5 -10.8364 0.025 0 0 -1.60516 0.163625 
88 1 -0.0666498 -0.0440815 -3.53127 0 -0.5 -10.8047 0.015 0 0 -0.346714 0.0353429 
57 1 -0.120673 -0.154939 -3.50959 0 -0.5 -10.785 0.015 0 0 -0.346714 0.0353429 
99 1 -0.146283 -0.206483 -3.48426 0 -0.5 -10.7619 0.015 0 0 -0.346714 0.0353429 
10 1 -0.0395816 0.0197561 -3.49796 0.0635655 -0.375939 -10.8186 0.025 0 0 -1.60516 0.163625 
83 1 -0.108229 -0.176854 -3.41419 0 -0.5 -10.6979 0.015 0 0 -0.346714 0.0353429 
34 1 -0.138562 -0.037489 -3.42565 0 -0.5 -10.7084 0.025 0 0 -1.60516 0.163625 
66 1 -0.0281121 -0.219177 -3.39859 0 -0.5 -10.6836 0.015 0 0 -0.346714 0.0353429 
19 1 -0.0715757 -0.196748 -3.40661 0 -0.5 -10.6909 0.025 0 0 -1.60516 0.163625 
71 1 -0.145263 0.00619755 -3.38182 0 -0.5 -10.6682 0.015 0 0 -0.346714 0.0353429 
81 1 -0.00382107 0.00211249 -3.36258 0.0510683 -0.442607 -10.6162 0.015 -0.377274 -0.0551431 -0.123276 0.0353429 
67 1 -0.0183057 -0.263611 -3.34594 0 -0.5 -10.6351 0.015 0 0 -0.346714 0.0353429 
24 1 -0.138394 -0.236548 -3.32012 0 -0.5 -10.6113 0.025 0 0 -1.60516 0.163625 
133 1 -0.127566 -0.120056 -3.30188 0 -0.5 -10.5944 0.015 0 0 -0.346714 0.0353429 
95 1 -0.10482 -0.0326878 -3.29458 0 -0.5 -10.5876 0.015 0 0 -0.346714 0.0353429 
39 1 -0.0696793 0.01701 -3.29435 0 -0.5 -10.5874 0.025 0 0 -1.60516 0.163625 
103 1 -0.135939 -0.192278 -3.24302 0 -0.5 -10.5398 0.015 0 0 -0.346714 0.0353429 
70 1 -0.107191 -0.210076 -3.21745 0 -0.5 -10.5159 0.015 0 0 -0.346714 0.0353429 
143 1 -0.11631 0.0256819 -3.2248 0 -0.5 -10.5228 0.015 0 0 -0.346714 0.0353429 
97 1 -0.0338223 -0.206856 -3.18373 0 -0.5 -10.4844 0.015 0 0 -0.346714 0.0353429 
115 1 -0.076478 -0.171569 -3.18289 0 -0.5 -10.4836 0.015 0 0 -0.346714 0.0353429 
85 1 -0.13789 -0.0499848 -3.17786 0 -0.5 -10.4789 0.015 0 0 -0.346714 0.0353429 
28 1 -0.0685748 -0.23393 -3.16487 0 -0.5 -10.4668 0.025 0 0 -1.60516 0.163625 
134 1 -0.137197 -0.00963341 -3.14428 0 -0.5 -10.4474 0.015 0 0 -0.346714 0.0353429 
126 1 -0.136076 -0.143339 -3.10891 -0.0288748 -0.539424 -10.4023 0.015 0 0 -0.346714 0.0353429 
77 1 -0.0297287 0.0187485 -3.12957 0 -0.5 -10.4336 0.015 0 0 -0.346714 0.0353429 
120 1 -0.148569 0.0392607 -3.12538 0 -0.5 -10.4297 0.015 0 0 -0.346714 0.0353429 
96 1 -0.131998 -0.206919 -3.08904 0 -0.5 -10.3954 0.015 0 0 -0.346714 0.0353429 
38 1 -0.121616 -0.165812 -3.04661 0 -0.5 -10.3553 0.025 0 0 -1.60516 0.163625 
130 1 -0.0642546 -0.171559 -2.96747 0 -0.5 -10.2801 0.015 0 0 -0.346714 0.0353429 
23 1 -0.134189 -0.029481 -2.96932 0 -0.5 -10.2818 0.025 0 0 -1.60516 0.163625 
106 1 -0.183422 0.257056 -2.93016 -0.0998962 -0.230395 -10.3159 0.015 0 0 -0.346714 0.0353429 
150 1 -0.100106 -0.194793 -2.92121 0 -0.5 -10.2358 0.015 0 0 -0.346714 0.0353429 
18 1 -0.106015 0.035686 -2.91865 0 -0.5 -10.2334 0.025 0 0 -1.60516 0.163625 
4 1 -0.0330873 0.0488569 -2.92028 0 -0.5 -10.235 0.025 0 0 -1.60516 0.163625 
31 1 -0.140814 -0.229123 -2.89136 0 -0.5 -10.2072 0.025 0 0 -1.60516 0.163625 
110 1 -0.0868918 -0.239583 -2.8375 0 -0.5 -10.1553 0.015 0 0 -0.346714 0.0353429 
93 1 -0.0244706 -0.227842 -2.81022 0 -0.5 -10.1289 0.015 0 0 -0.346714 0.0353429 
136 1 -0.0832352 -0.0209924 -2.80313 0 -0.5 -10.122 0.015 0 0 -0.346714 0.0353429 
17 1 -0.134634 -0.113973 -2.79645 0 -0.5 -10.1156 0.025 0 0 -1.60516 0.163625 
30 1 -0.0481876 0.00685718 -2.78725 0 -0.5 -10.1066 0.025 0 0 -1.60516 0.163625 
109 1 -0.0676248 0.0540796 -2.78938 0 -0.5 -10.1087 0.015 0 0 -0.346714 0.0353429 
1 1 -0.159191 0.398898 -2.7782 -0.021394 -0.0706631 -10.1809 0.025 0 0 -1.60516 0.163625 
108 1 -0.089121 -0.207176 -2.7042 0 -0.5 -10.0257 0.015 0 0 -0.346714 0.0353429 
69 1 -0.020474 -0.186917 -2.65969 0 -0.5 -9.98205 0.015 0 0 -0.346714 0.0353429 
35 1 -0.146938 -0.013208 -2.64643 0 -0.5 -9.96901 0.025 0 0 -1.60516 0.163625 
22 1 -0.102489 -0.0816935 -2.59521 0 -0.5 -9.91848 0.025 0 0 -1.60516 0.163625 
102 1 -0.11709 -0.207101 -2.58479 0 -0.5 -9.90818 0.015 0 0 -0.346714 0.0353429 
14 1 -0.0571303 -0.215025 -2.56332 0 -0.5 -9.8869 0.025 0 0 -1.60516 0.163625 
139 1 -0.104092 -0.149428 -2.5851 0 -0.5 -9.90848 0.015 0 0 -0.346714 0.0353429 
144 1 -0.0691235 -0.146526 -2.58697 0 -0.5 -9.91034 0.015 0 0 -0.346714 0.0353429 
141 1 -0.136875 -0.133736 -2.534 0 -0.5 -9.85776 0.015 0 0 -0.346714 0.0353429 
55 1 -0.0960031 0.0244087 -2.55396 -7.52477e-06 -0.49998 -9.87761 0.015 0 0 -0.346714 0.0353429 
21 1 -0.0470047 0.0694999 -2.50507 0 -0.5 -9.82892 0.025 0 0 -1.60516 0.163625 
94 1 -0.39448 0.136755 -2.50421 -0.356499 -0.190573 -9.86515 0.015 0 0 -0.346714 0.0353429 
87 1 -0.113676 -0.0124124 -2.47572 0 -0.5 -9.79959 0.015 0 0 -0.346714 0.0353429 
107 1 -0.141609 -0.218052 -2.42323 0 -0.5 -9.74691 0.015 0 0 -0.346714 0.0353429 
84 1 -0.116406 -0.0542137 -2.37811 0 -0.5 -9.70139 0.015 0 0 -0.346714 0.0353429 
147 1 -0.100309 0.0574308 -2.39171 0 -0.5 -9.71512 0.015 0 0 -0.346714 0.0353429 
112 1 -0.073338 -0.134721 -2.37123 0 -0.5 -9.69442 0.015 0 0 -0.346714 0.0353429 
142 1 -0.0724928 -0.193252 -2.32809 0 -0.5 -9.65067 0.015 0 0 -0.346714 0.0353429 
145 1 -0.0934491 0.0221128 -2.32384 0 -0.5 -9.64636 0.015 0 0 -0.346714 0.0353429 
47 1 -0.140465 0.0294497 -2.3279 0 -0.5 -9.65048 0.025 0 0 -1.60516 0.163625 
80 1 -0.102893 -0.00710748 -2.29225 0 -0.5 -9.61418 0.015 0 0 -0.346714 0.0353429 
6 1 -0.0313295 -0.116657 -2.28466 0.101461 -0.428163 -9.60985 0.025 0 0 -1.60516 0.163625 
32 1 -0.196799 -0.230956 -2.2283 -0.0613285 -0.540948 -9.54691 0.025 0 0 -1.60516 0.163625 
135 1 -0.140472 -0.125107 -2.23428 0 -0.5 -9.55483 0.015 0 0 -0.346714 0.0353429 
62 1 -0.0849655 0.0824061 -2.23484 0 -0.5 -9.55542 0.015 0 0 -0.346714 0.0353429 
280 1 -0.204146 0.425748 -2.24118 -0.323138 -0.0374805 -9.6175 0.015 0 0 -0.346714 0.0353429 
138 1 -0.0317395 -0.190684 -2.19614 0 -0.5 -9.51559 0.015 0 0 -0.346714 0.0353429 
15 1 -0.0598697 0.00266738 -2.20277 0.0430154 -0.390763 -9.50265 0.025 0 0 -1.60516 0.163625 
128 1 -0.145291 -0.0403232 -2.1928 0 -0.5 -9.51215 0.015 0 0 -0.346714 0.0353429 
121 1 -0.0679495 0.0640779 -2.15246 0 -0.5 -9.47046 0.015 0 0 -0.346714 0.0353429 
129 1 -0.0553418 -0.166801 -2.07815 0 -0.5 -9.39316 0.015 0 0 -0.346714 0.0353429 
13 1 -0.146779 -0.0841789 -2.0485 0 -0.5 -9.36216 0.025 0 0 -1.60516 0.163625 
101 1 -0.102489 -0.0741755 -2.05675 0 -0.5 -9.37079 0.015 0 0 -0.346714 0.0353429 
37 1 -0.0716655 0.0286653 -2.05788 0 -0.5 -9.37197 0.025 0 0 -1.60516 0.163625 
46 1 -0.032303 0.0905688 -2.04729 0 -0.5 -9.36088 0.025 0 0 -1.60516 0.163625 
61 1 -0.0231802 -0.197065 -2.02551 0 -0.5 -9.33803 0.015 0 0 -0.346714 0.0353429 
79 1 -0.0179342 -0.163016 -2.02533 0 -0.5 -9.33783 0.015 0 0 -0.346714 0.0353429 
91 1 -0.124131 0.022132 -2.02439 0 -0.5 -9.33685 0.015 0 0 -0.346714 0.0353429 
52 1 -0.100497 -0.18151 -2.00872 0 -0.5 -9.32037 0.015 0 0 -0.346714 0.0353429 
5 1 -0.137704 -0.153588 -1.98693 0 -0.5 -9.29741 0.025 0 0 -1.60516 0.163625 
20 1 -0.124339 -0.0261123 -1.99371 0 -0.5 -9.30458 0.025 0 0 -1.60516 0.163625 
7 1 -0.0712578 -0.114551 -1.98014 0 -0.5 -9.29025 0.025 0 0 -1.60516 0.163625 
86 1 -0.142939 0.0150587 -1.90854 0 -0.5 -9.21432 0.015 0 0 -0.346714 0.0353429 
9 1 -0.0320364 0.0491587 -1.90153 0 -0.5 -9.20687 0.025 0 0 -1.60516 0.163625 
58 1 -0.0969698 -0.0801093 -1.87304 0 -0.5 -9.17646 0.015 0 0 -0.346714 0.0353429 
124 1 -0.136447 0.0453765 -1.87331 0 -0.5 -9.17675 0.015 0 0 -0.346714 0.0353429 
65 1 -0.147981 -0.176903 -1.84492 0 -0.5 -9.14634 0.015 0 0 -0.346714 0.0353429 
41 1 -0.107908 0.100758 -1.85022 0 -0.5 -9.15203 0.025 0 0 -1.60516 0.163625 
131 1 -0.025873 0.0880403 -1.78795 0 -0.5 -9.08503 0.015 0 0 -0.346714 0.0353429 
104 1 -0.138444 -0.0127829 -1.76835 0 -0.5 -9.06384 0.015 0 0 -0.346714 0.0353429 
132 1 -0.0234712 -0.143832 -1.7299 0 -0.5 -9.02215 0.015 0 0 -0.346714 0.0353429 
48 1 -0.144727 -0.086148 -1.73154 0 -0.5 -9.02391 0.025 0 0 -1.60516 0.163625 
53 1 -0.106432 -0.0416597 -1.7272 0 -0.5 -9.0192 0.015 0 0 -0.346714 0.0353429 
49 1 -0.0613084 -0.16629 -1.68941 0 -0.5 -8.978 0.025 0 0 -1.60516 0.163625 
16 1 -0.129915 0.0570792 -1.68303 0 -0.5 -8.97104 0.025 0 0 -1.60516 0.163625 
27 1 -0.0637137 0.0838848 -1.68169 0 -0.5 -8.96956 0.025 0 0 -1.60516 0.163625 
82 1 -0.0851821 0.0476269 -1.67003 0 -0.5 -8.95681 0.015 0 0 -0.346714 0.0353429 
63 1 -0.147823 0.113713 -1.6509 0 -0.5 -8.93582 0.015 0 0 -0.346714 0.0353429 
25 1 -0.104447 -0.132215 -1.59195 0 -0.5 -8.87087 0.025 0 0 -1.60516 0.163625 
127 1 -0.0304133 -0.120379 -1.61514 0 -0.5 -8.89648 0.015 0 0 -0.346714 0.0353429 
56 1 -0.11556 0.111119 -1.61542 0 -0.5 -8.89677 0.015 0 0 -0.346714 0.0353429 
42 1 -0.132916 -0.0392044 -1.56239 0 -0.5 -8.83811 0.025 0 0 -1.60516 0.163625 
123 1 -0.11925 0.0174922 -1.55488 0 -0.5 -8.82977 0.015 0 0 -0.346714 0.0353429 
64 1 -0.145219 0.0811771 -1.52641 0 -0.5 -8.79808 0.015 0 0 -0.346714 0.0353429 
125 1 -0.0960051 0.0731273 -1.52261 0 -0.5 -8.79387 0.015 0 0 -0.346714 0.0353429 
392 1 -0.0201822 -0.168623 -1.49225 0 -0.5 -8.75992 0.015 0 0 -0.346714 0.0353429 
361 1 -0.0655065 -0.140841 -1.49733 0 -0.5 -8.76561 0.015 0 0 -0.346714 0.0353429 
375 1 -0.132504 -0.103787 -1.47808 0 -0.5 -8.74403 0.015 0 0 -0.346714 0.0353429 
391 1 -0.0665259 0.0581896 -1.49454 0 -0.5 -8.76247 0.015 0 0 -0.346714 0.0353429 
353 1 -0.0778865 -0.0874899 -1.43901 0 -0.5 -8.70008 0.015 0 0 -0.346714 0.0353429 
370 1 -0.0476722 0.130061 -1.43908 0 -0.5 -8.70018 0.015 0 0 -0.346714 0.0353429 
432 1 -0.110656 -0.0279772 -1.41408 0 -0.5 -8.67193 0.015 0 0 -0.346714 0.0353429 
423 1 -0.035066 0.0763516 -1.41745 0 -0.5 -8.67575 0.015 0 0 -0.346714 0.0353429 
449 1 -0.121601 -0.16303 -1.39173 0 -0.5 -8.64662 0.015 0 0 -0.346714 0.0353429 
348 1 -0.0535366 -0.158119 -1.35459 -0.0150753 -0.514502 -8.60247 0.025 0 0 -1.60516 0.163625 
434 1 -0.110177 0.104235 -1.34638 0 -0.5 -8.59502 0.015 0 0 -0.346714 0.0353429 
409 1 -0.1116 -0.0557207 -1.34201 0 -0.5 -8.59001 0.015 0 0 -0.346714 0.0353429 
304 1 -0.147639 0.0702992 -1.29337 0 -0.5 -8.53429 0.025 0 0 -1.60516 0.163625 
414 1 -0.12165 0.0144124 -1.23125 0 -0.5 -8.46258 0.015 0 0 -0.346714 0.0353429 
327 1 -0.047146 0.107396 -1.24123 0 -0.5 -8.47416 0.025 0 0 -1.60516 0.163625 
368 1 -0.0426125 -0.117897 -1.19848 0 -0.5 -8.42452 0.015 0 0 -0.346714 0.0353429 
416 1 -0.148865 0.0357519 -1.20809 0 -0.5 -8.4357 0.015 0 0 -0.346714 0.0353429 
422 1 -0.0856494 0.0986283 -1.20184 0 -0.5 -8.42844 0.015 0 0 -0.346714 0.0353429 
328 1 -0.101567 -0.0926404 -1.16838 0 -0.5 -8.3894 0.025 0 0 -1.60516 0.163625 
342 1 -0.0942786 0.0580065 -1.16613 0 -0.5 -8.38675 0.025 0 0 -1.60516 0.163625 
307 1 -0.141488 -0.123684 -1.14702 0 -0.5 -8.36438 0.025 0 0 -1.60516 0.163625 
441 1 -0.0895132 0.136957 -1.14628 0 -0.5 -8.3635 0.015 0 0 -0.346714 0.0353429 
440 1 -0.074831 -0.141367 -1.12215 0 -0.5 -8.33515 0.015 0 0 -0.346714 0.0353429 
323 1 -0.131477 -0.00818651 -1.07354 0 -0.5 -8.27776 0.025 0 0 -1.60516 0.163625 
352 1 -0.144025 0.0959385 -1.10199 0 -0.5 -8.31141 0.015 0 0 -0.346714 0.0353429 
330 1 -0.125578 0.152028 -1.09378 0 -0.5 -8.3017 0.025 0 0 -1.60516 0.163625 
388 1 -0.0545692 -0.0773145 -1.06983 0 -0.5 -8.27335 0.015 0 0 -0.346714 0.0353429 
406 1 -0.0920408 0.095666 -1.05429 0 -0.5 -8.25491 0.015 0 0 -0.346714 0.0353429 
318 1 -0.126425 0.0691585 -0.984065 0 -0.5 -8.17103 0.025 0 0 -1.60516 0.163625 
331 1 -0.138106 -0.136169 -0.954545 0 -0.5 -8.13552 0.025 0 0 -1.60516 0.163625 
418 1 -0.0554251 -0.13106 -0.979583 0 -0.5 -8.16563 0.015 0 0 -0.346714 0.0353429 
395 1 -0.110093 -0.0801279 -0.966437 0 -0.5 -8.14984 0.015 0 0 -0.346714 0.0353429 
336 1 -0.025747 0.102523 -0.968076 0 -0.5 -8.1518 0.025 0 0 -1.60516 0.163625 
313 1 -0.0392615 -0.0923105 -0.929371 0 -0.5 -8.10511 0.025 0 0 -1.60516 0.163625 
374 1 -0.133879 0.129467 -0.924928 0 -0.5 -8.09971 0.015 0 0 -0.346714 0.0353429 
315 1 -0.0970947 -0.0255935 -0.884716 0 -0.5 -8.05086 0.025 0 0 -1.60516 0.163625 
407 1 -0.0713596 0.102089 -0.881967 0 -0.5 -8.04752 0.015 0 0 -0.346714 0.0353429 
310 1 -0.0919271 0.139993 -0.890267 0 -0.5 -8.05763 0.025 0 0 -1.60516 0.163625 
445 1 -0.0938501 0.0446432 -0.854987 0 -0.5 -8.01456 0.015 0 0 -0.346714 0.0353429 
377 1 -0.128279 -0.10828 -0.810174 0 -0.5 -7.95953 0.015 0 0 -0.346714 0.0353429 
386 1 -0.118095 0.11311 -0.817832 0 -0.5 -7.96894 0.015 0 0 -0.346714 0.0353429 
344 1 -0.147144 0.0454448 -0.779064 0 -0.5 -7.92107 0.025 0 0 -1.60516 0.163625 
302 1 -0.0567477 -0.110684 -0.74257 0 -0.5 -7.87575 0.025 0 0 -1.60516 0.163625 
401 1 -0.0913429 -0.0792196 -0.746427 0 -0.5 -7.88056 0.015 0 0 -0.346714 0.0353429 
439 1 -0.132801 0.00789672 -0.752265 0 -0.5 -7.88781 0.015 0 0 -0.346714 0.0353429 
314 1 -0.136534 -0.0427638 -0.72511 0 -0.5 -7.85397 0.025 0 0 -1.60516 0.163625 
355 1 -0.0483468 -0.0632415 -0.683697 0 -0.5 -7.80208 0.015 0 0 -0.346714 0.0353429 
413 1 -0.0512121 0.106816 -0.69573 0 -0.5 -7.81718 0.015 0 0 -0.346714 0.0353429 
442 1 -0.149932 0.166171 -0.693138 0 -0.5 -7.81395 0.015 0 0 -0.346714 0.0353429 
431 1 -0.13363 -0.0823494 -0.669436 0 -0.5 -7.78412 0.015 0 0 -0.346714 0.0353429 
354 1 -0.0927402 0.105498 -0.672549 0 -0.5 -7.78805 0.015 0 0 -0.346714 0.0353429 
408 1 -0.087028 0.174439 -0.675431 0 -0.5 -7.79168 0.015 0 0 -0.346714 0.0353429 
382 1 -0.0966006 0.21629 -0.668137 0.026541 -0.439017 -7.82727 0.015 0 0 -0.346714 0.0353429 
427 1 -0.0619444 0.350833 -0.649046 0.0988458 -0.172977 -7.8645 0.015 0 0 -0.346714 0.0353429 
446 1 -0.116317 0.0746265 -0.627469 0 -0.5 -7.73105 0.015 0 0 -0.346714 0.0353429 
411 1 -0.0485728 0.157056 -0.611941 0 -0.5 -7.71133 0.015 0 0 -0.346714 0.0353429 
399 1 -0.074527 -0.0599519 -0.545081 0 -0.5 -7.62579 0.015 0 0 -0.346714 0.0353429 
436 1 -0.0854574 -0.00504938 -0.546378 0 -0.5 -7.62746 0.015 0 0 -0.346714 0.0353429 
341 1 -0.148816 0.108228 -0.541037 0 -0.5 -7.62059 0.025 0 0 -1.60516 0.163625 
389 1 -0.0230912 0.181676 -0.538746 0 -0.5 -7.61765 0.015 0 0 -0.346714 0.0353429 
324 1 -0.0498553 -0.105297 -0.502747 0 -0.5 -7.57115 0.025 0 0 -1.60516 0.163625 
350 1 -0.147794 -0.0726051 -0.522094 0 -0.5 -7.59616 0.025 0 0 -1.60516 0.163625 
335 1 -0.126459 -0.0115822 -0.522537 0 -0.5 -7.59675 0.025 0 0 -1.60516 0.163625 
385 1 -0.0696212 0.117365 -0.509185 0 -0.5 -7.57949 0.015 0 0 -0.346714 0.0353429 
384 1 -0.218984 0.220311 -0.524659 -0.135564 -0.440896 -7.61059 0.015 0 0 -0.346714 0.0353429 
437 1 -0.0723044 -0.0287682 -0.487848 0 -0.5 -7.55182 0.015 0 0 -0.346714 0.0353429 
394 1 -0.145405 0.146684 -0.4407 0 -0.5 -7.49031 0.015 0 0 -0.346714 0.0353429 
367 1 -0.106717 -0.0481692 -0.41813 0 -0.5 -7.46069 0.015 0 0 -0.346714 0.0353429 
426 1 -0.0179373 0.176964 -0.418939 0 -0.5 -7.46177 0.015 0 0 -0.346714 0.0353429 
424 1 -0.157848 0.214785 -0.407654 -0.0730123 -0.390635 -7.45194 0.015 0 0 -0.346714 0.0353429 
358 1 -0.127277 -0.0812076 -0.389841 0 -0.5 -7.42341 0.015 0 0 -0.346714 0.0353429 
326 1 -0.145564 0.048454 -0.386427 0 -0.5 -7.4189 0.025 0 0 -1.60516 0.163625 
319 1 -0.0687817 0.198025 -0.395122 0 -0.5 -7.43037 0.025 0 0 -1.60516 0.163625 
376 1 -0.0824761 -0.0362283 -0.349382 0 -0.5 -7.36975 0.015 0 0 -0.346714 0.0353429 
433 1 -0.118613 -0.0953348 -0.300304 0 -0.5 -7.30412 0.015 0 0 -0.346714 0.0353429 
420 1 -0.037203 -0.0871744 -0.293139 0 -0.5 -7.29451 0.015 0 0 -0.346714 0.0353429 
402 1 -0.101682 -0.051713 -0.286219 0 -0.5 -7.28519 0.015 0 0 -0.346714 0.0353429 
306 1 -0.116739 0.126034 -0.288484 0 -0.5 -7.28823 0.025 0 0 -1.60516 0.163625 
412 1 -0.0937388 0.196584 -0.277192 0 -0.5 -7.27302 0.015 0 0 -0.346714 0.0353429 
363 1 -0.0911777 0.0253271 -0.24117 0 -0.5 -7.22427 0.015 0 0 -0.346714 0.0353429 
360 1 -0.116599 0.0492209 -0.24434 0 -0.5 -7.22858 0.015 0 0 -0.346714 0.0353429 
397 1 -0.0557758 0.137618 -0.233812 0 -0.5 -7.21426 0.015 0 0 -0.346714 0.0353429 
371 1 -0.0449321 0.176104 -0.247603 0 -0.5 -7.233 0.015 0 0 -0.346714 0.0353429 
322 1 -0.131733 -0.0644363 -0.181543 0 -0.5 -7.14284 0.025 0 0 -1.60516 0.163625 
373 1 -0.136858 0.0821841 -0.163994 0 -0.5 -7.11871 0.015 0 0 -0.346714 0.0353429 
396 1 -0.0958984 0.10266 -0.177538 0 -0.5 -7.13735 0.015 0 0 -0.346714 0.0353429 
381 1 -0.0827007 0.171114 -0.188042 0 -0.5 -7.15177 0.015 0 0 -0.346714 0.0353429 
369 1 -0.138958 0.140563 -0.158596 0 -0.5 -7.11126 0.015 0 0 -0.346714 0.0353429 
383 1 -0.0262689 0.158803 -0.156524 0 -0.5 -7.10841 0.015 0 0 -0.346714 0.0353429 
308 1 -0.0841914 -0.0542617 -0.113052 -0.0168546 -0.516386 -7.04721 0.025 0 0 -1.60516 0.163625 
438 1 -0.0987495 0.0343327 -0.111309 0 -0.5 -7.04572 0.015 0 0 -0.346714 0.0353429 
415 1 -0.127182 -0.01387 -0.0715902 0 -0.5 -6.9902 0.015 0 0 -0.346714 0.0353429 
356 1 -0.111476 0.077564 -0.097736 0 -0.5 -7.02679 0.015 0 0 -0.346714 0.0353429 
443 1 -0.0906469 0.132658 -0.0755146 0 -0.5 -6.99569 0.015 0 0 -0.346714 0.0353429 
340 1 -0.149237 0.205237 -0.0987151 0 -0.5 -7.02816 0.025 0 0 -1.60516 0.163625 
343 1 -0.140775 0.0448986 -0.0578313 0 -0.5 -6.97087 0.025 0 0 -1.60516 0.163625 
349 1 -0.116564 0.164594 -0.0501036 0 -0.5 -6.95999 0.025 0 0 -1.60516 0.163625 
351 1 -0.0409452 0.163112 -0.0410661 0 -0.5 -6.94723 0.015 0 0 -0.346714 0.0353429 
390 1 -0.0988461 -0.0534101 0.00132945 0 -0.5 -6.8871 0.015 0 0 -0.346714 0.0353429 
539 1 -0.0425958 0.480287 -0.0057157 -0.32393 0.0458257 -6.98206 0.015 0 0 -0.346714 0.0353429 
448 1 -0.0329565 -0.04443 0.0447964 0 -0.5 -6.8249 0.015 0 0 -0.346714 0.0353429 
346 1 -0.157218 0.304978 0.0488304 -0.0151472 -0.325165 -6.84478 0.025 0 0 -1.60516 0.163625 
347 1 -0.0548177 -0.00711004 0.056115 0 -0.5 -6.80862 0.025 0 0 -1.60516 0.163625 
378 1 -0.121409 0.0411982 0.0693744 0 -0.5 -6.78949 0.015 0 0 -0.346714 0.0353429 
312 1 -0.134707 0.100718 0.0715582 0 -0.5 -6.78635 0.025 0 0 -1.60516 0.163625 
417 1 -0.0160313 0.200054 0.0715449 0 -0.5 -6.78635 0.015 0 0 -0.346714 0.0353429 
419 1 -0.111609 -0.0624812 0.105092 0 -0.5 -6.73769 0.015 0 0 -0.346714 0.0353429 
362 1 -0.0154426 -0.0123913 0.099416 0 -0.5 -6.74593 0.015 0 0 -0.346714 0.0353429 
359 1 -0.107325 0.145399 0.0861836 0 -0.5 -6.76516 0.015 0 0 -0.346714 0.0353429 
303 1 -0.0551599 0.164479 0.100238 0 -0.5 -6.74475 0.025 0 0 -1.60516 0.163625 
421 1 -0.0930175 0.0175422 0.133175 0 -0.5 -6.69668 0.015 0 0 -0.346714 0.0353429 
334 1 -0.103439 0.200448 0.12117 0 -0.5 -6.71424 0.025 0 0 -1.60516 0.163625 
325 1 -0.107627 0.042903 0.205297 0.0497405 -0.588401 -6.59496 0.025 0 0 -1.60516 0.163625 
365 1 -0.178754 0.107597 0.233353 -0.198006 -0.434998 -6.47769 0.015 0 0 -0.346714 0.0353429 
320 1 -0.0648735 -0.0230713 0.235582 0 -0.5 -6.54492 0.025 0 0 -1.60516 0.163625 
372 1 -0.0702168 0.160237 0.246578 0 -0.5 -6.52844 0.015 0 0 -0.346714 0.0353429 
447 1 -0.122284 0.241789 0.237361 0 -0.5 -6.54228 0.015 0 0 -0.346714 0.0353429 
309 1 -0.144284 -0.0239691 0.267032 0 -0.5 -6.49764 0.025 0 0 -1.60516 0.163625 
430 1 -0.123083 0.0233929 0.288337 0 -0.5 -6.46536 0.015 0 0 -0.346714 0.0353429 
403 1 -0.0833248 0.029397 0.294618 0 -0.5 -6.45585 0.015 0 0 -0.346714 0.0353429 
387 1 -0.0901615 0.138452 0.273914 0 -0.5 -6.48724 0.015 0 0 -0.346714 0.0353429 
338 1 -0.0583644 0.229556 0.270917 0 -0.5 -6.49175 0.025 0 0 -1.60516 0.163625 
379 1 -0.0327871 -0.0216708 0.325036 0 -0.5 -6.40945 0.015 0 0 -0.346714 0.0353429 
393 1 -0.015571 0.200279 0.317411 0 -0.5 -6.42112 0.015 0 0 -0.346714 0.0353429 
357 1 -0.0584785 0.0272145 0.383018 0 -0.5 -6.32008 0.015 0 0 -0.346714 0.0353429 
316 1 -0.0983119 -0.0378893 0.396148 0 -0.5 -6.29967 0.025 0 0 -1.60516 0.163625 
596 1 -0.0159237 -0.0214131 0.395135 -0.249685 -0.689253 -6.22047 0.015 0 0 -0.346714 0.0353429 
380 1 -0.127355 0.137976 0.411547 0 -0.5 -6.27564 0.015 0 0 -0.346714 0.0353429 
301 1 -0.0831249 0.197025 0.399123 0.012148 -0.512208 -6.29505 0.025 0 0 -1.60516 0.163625 
428 1 -0.0387226 0.212002 0.409365 0 -0.5 -6.27907 0.015 0 0 -0.346714 0.0353429 
329 1 -0.1295 0.243812 0.391175 -0.0138001 -0.485947 -6.30746 0.025 0 0 -1.60516 0.163625 
450 1 -0.0322061 0.256898 0.411987 0 -0.5 -6.27495 0.015 0 0 -0.346714 0.0353429 
364 1 -0.0453235 -0.00719347 0.421828 0 -0.5 -6.25955 0.015 0 0 -0.346714 0.0353429 
321 1 -0.126579 0.0332512 0.423952 0 -0.5 -6.25622 0.025 0 0 -1.60516 0.163625 
410 1 -0.145474 0.0825358 0.433583 0 -0.5 -6.24111 0.015 0 0 -0.346714 0.0353429 
333 1 -0.0978849 0.0953371 0.426017 0 -0.5 -6.25298 0.025 0 0 -1.60516 0.163625 
337 1 -0.142368 0.178838 0.456986 0 -0.5 -6.20422 0.025 0 0 -1.60516 0.163625 
332 1 -0.0814262 0.024266 0.540804 0 -0.5 -6.07022 0.025 0 0 -1.60516 0.163625 
400 1 -0.135353 0.067905 0.548764 0 -0.5 -6.05737 0.015 0 0 -0.346714 0.0353429 
544 1 -0.1372 0.42076 0.549383 -0.39021 -0.130746 -6.10333 0.015 0 0 -0.346714 0.0353429 
425 1 -0.074083 -0.0292132 0.571829 0 -0.5 -6.01989 0.015 0 0 -0.346714 0.0353429 
311 1 -0.0354402 -0.0136325 0.59498 0 -0.5 -5.98203 0.025 0 0 -1.60516 0.163625 
317 1 -0.129905 0.110055 0.587443 0 -0.5 -5.99439 0.025 0 0 -1.60516 0.163625 
366 1 -0.144217 0.187022 0.58222 0 -0.5 -6.00292 0.015 0 0 -0.346714 0.0353429 
339 1 -0.0802774 0.23266 0.570679 0 -0.5 -6.02176 0.025 0 0 -1.60516 0.163625 
405 1 -0.038992 0.22139 0.59462 0 -0.5 -5.98261 0.015 0 0 -0.346714 0.0353429 
305 1 -0.0452536 0.269472 0.571823 0 -0.5 -6.01989 0.025 0 0 -1.60516 0.163625 
404 1 -0.119976 -0.00815561 0.619493 0 -0.5 -5.94171 0.015 0 0 -0.346714 0.0353429 
345 1 -0.128178 0.0346745 0.611989 0 -0.5 -5.95407 0.025 0 0 -1.60516 0.163625 
435 1 -0.0960728 0.0719762 0.620451 0 -0.5 -5.94014 0.015 0 0 -0.346714 0.0353429 
675 1 -0.14219 0.27293 0.657772 -0.0349785 -0.349711 -5.93696 0.015 0 0 -0.346714 0.0353429 
444 1 -0.0159467 0.267826 0.655559 0 -0.5 -5.88187 0.015 0 0 -0.346714 0.0353429 
714 1 -0.0240605 0.036326 0.698929 0 -0.5 -5.80908 0.015 0 0 -0.346714 0.0353429 
676 1 -0.132839 0.0638674 0.72053 0 -0.5 -5.77248 0.015 0 0 -0.346714 0.0353429 
690 1 -0.0634806 0.234565 0.707274 0 -0.5 -5.79495 0.015 0 0 -0.346714 0.0353429 
634 1 -0.102181 0.256021 0.710128 0 -0.5 -5.79014 0.025 0 0 -1.60516 0.163625 
652 1 -0.0683105 0.0683376 0.740666 0 -0.5 -5.73815 0.015 0 0 -0.346714 0.0353429 
669 1 -0.0318411 0.245893 0.74538 0 -0.5 -5.73011 0.015 0 0 -0.346714 0.0353429 
629 1 -0.113195 0.115381 0.756707 0 -0.5 -5.71068 0.025 0 0 -1.60516 0.163625 
608 1 -0.0938106 0.00479333 0.79536 0 -0.5 -5.64388 0.025 0 0 -1.60516 0.163625 
682 1 -0.0469368 0.000781179 0.806347 0 -0.5 -5.62475 0.015 0 0 -0.346714 0.0353429 
606 1 -0.122152 0.1888 0.800968 0.00210743 -0.508228 -5.63101 0.025 0 0 -1.60516 0.163625 
708 1 -0.0786991 0.229401 0.797897 0 -0.5 -5.63946 0.015 0 0 -0.346714 0.0353429 
701 1 -0.0870486 0.287674 0.802457 0 -0.5 -5.63151 0.015 0 0 -0.346714 0.0353429 
657 1 -0.0480729 0.0389275 0.818537 0 -0.5 -5.60346 0.015 0 0 -0.346714 0.0353429 
735 1 -0.0832421 0.0826695 0.839361 0 -0.5 -5.56687 0.015 0 0 -0.346714 0.0353429 
660 1 -0.0183143 0.242377 0.823173 0 -0.5 -5.59532 0.015 0 0 -0.346714 0.0353429 
618 1 -0.13283 0.0491641 0.895793 0 -0.5 -5.46651 0.025 0 0 -1.60516 0.163625 
709 1 -0.101732 0.131531 0.884684 0 -0.5 -5.48642 0.015 0 0 -0.346714 0.0353429 
750 1 -0.0862874 0.196179 0.898475 0 -0.5 -5.4617 0.015 0 0 -0.346714 0.0353429 
707 1 -0.0900659 0.0319886 0.916605 0 -0.5 -5.42904 0.015 0 0 -0.346714 0.0353429 
680 1 -0.0791761 0.0868811 0.934691 0 -0.5 -5.39627 0.015 0 0 -0.346714 0.0353429 
649 1 -0.129761 0.165177 0.918133 0 -0.5 -5.42629 0.025 0 0 -1.60516 0.163625 
640 1 -0.0489559 0.0515172 0.948951 0 -0.5 -5.37027 0.025 0 0 -1.60516 0.163625 
616 1 -0.140255 0.257264 0.949914 0 -0.5 -5.36851 0.025 0 0 -1.60516 0.163625 
712 1 -0.0372677 0.30255 0.963746 0 -0.5 -5.3432 0.015 0 0 -0.346714 0.0353429 
677 1 -0.113879 0.0223032 0.988164 0 -0.5 -5.29817 0.015 0 0 -0.346714 0.0353429 
725 1 -0.0732043 0.259614 0.975622 0 -0.5 -5.32132 0.015 0 0 -0.346714 0.0353429 
744 1 -0.107021 0.208725 1.00928 0 -0.5 -5.25893 0.015 0 0 -0.346714 0.0353429 
736 1 -0.0864872 0.115793 1.04715 0 -0.5 -5.18781 0.015 0 0 -0.346714 0.0353429 
685 1 -0.0969629 0.255703 1.03554 0 -0.5 -5.20968 0.015 0 0 -0.346714 0.0353429 
692 1 -0.0389882 0.0770701 1.08003 0 -0.5 -5.12522 0.015 0 0 -0.346714 0.0353429 
625 1 -0.0407999 0.217447 1.05865 0.250947 -0.205125 -5.26109 0.025 0 0 -1.60516 0.163625 
722 1 -0.124711 0.254428 1.08014 0 -0.5 -5.12502 0.015 0 0 -0.346714 0.0353429 
674 1 -0.11657 0.311544 1.07326 0 -0.5 -5.13817 0.015 0 0 -0.346714 0.0353429 
699 1 -0.0856858 0.31342 1.07013 0 -0.5 -5.14415 0.015 0 0 -0.346714 0.0353429 
610 1 -0.108705 0.055549 1.09751 0 -0.5 -5.09167 0.025 0 0 -1.60516 0.163625 
683 1 -0.0829948 0.256592 1.10378 0 -0.5 -5.0796 0.015 0 0 -0.346714 0.0353429 
732 1 -0.0691875 0.293647 1.11167 0 -0.5 -5.0643 0.015 0 0 -0.346714 0.0353429 
620 1 -0.0294016 0.287755 1.09324 0 -0.5 -5.09991 0.025 0 0 -1.60516 0.163625 
748 1 -0.0192599 0.0448309 1.12129 0 -0.5 -5.04566 0.015 0 0 -0.346714 0.0353429 
636 1 -0.149776 0.230476 1.13902 0 -0.5 -5.01103 0.025 0 0 -1.60516 0.163625 
705 1 -0.0946775 0.0332794 1.17752 0 -0.5 -4.9351 0.015 0 0 -0.346714 0.0353429 
678 1 -0.0973357 0.185233 1.15287 0 -0.5 -4.98386 0.015 0 0 -0.346714 0.0353429 
696 1 -0.058387 0.259843 1.1702 0 -0.5 -4.94962 0.015 0 0 -0.346714 0.0353429 
641 1 -0.148897 0.0953486 1.1927 -0.0165282 -0.51578 -4.89931 0.025 0 0 -1.60516 0.163625 
694 1 -0.138308 0.197231 1.20681 0 -0.5 -4.87654 0.015 0 0 -0.346714 0.0353429 
733 1 -0.0833844 0.230272 1.20809 0 -0.5 -4.87399 0.015 0 0 -0.346714 0.0353429 
698 1 -0.111785 0.273616 1.19214 0 -0.5 -4.90597 0.015 0 0 -0.346714 0.0353429 
648 1 -0.130879 0.314847 1.18132 0 -0.5 -4.92755 0.025 0 0 -1.60516 0.163625 
644 1 -0.140738 0.043303 1.2408 0 -0.5 -4.80767 0.025 0 0 -1.60516 0.163625 
730 1 -0.0250727 0.0452457 1.21947 0 -0.5 -4.85103 0.015 0 0 -0.346714 0.0353429 
637 1 -0.0618774 0.0648169 1.23011 0 -0.5 -4.82945 0.025 0 0 -1.60516 0.163625 
729 1 -0.0894542 0.0959081 1.23333 0 -0.5 -4.82288 0.015 0 0 -0.346714 0.0353429 
745 1 -0.0473217 0.215224 1.23536 0.249023 -0.340208 -4.88582 0.015 0 0 -0.346714 0.0353429 
639 1 -0.0440362 0.46353 1.21858 0.113569 0.037071 -4.89748 0.025 0 0 -1.60516 0.163625 
724 1 -0.0903421 0.133009 1.25409 0 -0.5 -4.7805 0.015 0 0 -0.346714 0.0353429 
628 1 -0.0963657 0.227566 1.28135 -0.035052 -0.643145 -4.71135 0.025 0 0 -1.60516 0.163625 
684 1 -0.0877228 0.0784894 1.30664 0 -0.5 -4.67141 0.015 0 0 -0.346714 0.0353429 