ITEM: TIMESTEP
47200
ITEM: NUMBER OF ATOMS
600
ITEM: BOX BOUNDS mm mm mm
-1 1
-1 1
-0.05 2.85
ITEM: ATOMS id type x y z vx vy vz radius fx fy fz mass 
68 1 -0.0997213 0.00927136 0.237421 0 -0.5 -6.54218 0.015 0 0 -0.346714 0.0353429 
45 1 -0.0943793 -0.0397624 0.271173 0 -0.5 -6.49136 0.025 0 0 -1.60516 0.163625 
122 1 -0.0691825 0.0149082 0.271774 0.00811842 -0.517403 -6.48974 0.015 0 0 -0.346714 0.0353429 
137 1 -0.0895564 0.0587723 0.253202 -0.00924354 -0.479856 -6.51932 0.015 0 0 -0.346714 0.0353429 
33 1 -0.129286 0.200605 0.26396 0 -0.5 -6.50225 0.025 0 0 -1.60516 0.163625 
43 1 -0.116198 0.111785 0.29616 0 -0.5 -6.45349 0.025 0 0 -1.60516 0.163625 
111 1 -0.0487783 0.2441 0.296867 0 -0.5 -6.45242 0.015 0 0 -0.346714 0.0353429 
119 1 -0.0370509 -0.0508114 0.306032 0 -0.5 -6.43849 0.015 0 0 -0.346714 0.0353429 
89 1 -0.129145 0.0283079 0.334067 0 -0.5 -6.39562 0.015 0 0 -0.346714 0.0353429 
75 1 -0.0493142 -0.000327898 0.326505 0 -0.5 -6.40719 0.015 0 0 -0.346714 0.0353429 
78 1 -0.0422369 0.207955 0.315217 0 -0.5 -6.42446 0.015 0 0 -0.346714 0.0353429 
59 1 -0.0865612 0.156868 0.350788 0 -0.5 -6.36991 0.015 0 0 -0.346714 0.0353429 
92 1 -0.131017 0.251327 0.36847 0 -0.5 -6.34264 0.015 0 0 -0.346714 0.0353429 
26 1 -0.0520658 0.0939132 0.41505 0.14857 -0.341553 -6.31169 0.025 0 0 -1.60516 0.163625 
8 1 -0.104188 -0.032537 0.453369 0 -0.5 -6.20991 0.025 0 0 -1.60516 0.163625 
98 1 -0.147127 0.100442 0.433705 0 -0.5 -6.24091 0.015 0 0 -0.346714 0.0353429 
151 1 -0.0686397 0.182527 0.433029 0 -0.5 -6.24199 0.015 0 0 -0.346714 0.0353429 
3 1 -0.141317 0.165388 0.462381 0 -0.5 -6.19569 0.025 0 0 -1.60516 0.163625 
72 1 -0.105673 0.202796 0.477891 0 -0.5 -6.17106 0.015 0 0 -0.346714 0.0353429 
100 1 -0.0681017 0.035921 0.500238 0 -0.5 -6.13545 0.015 0 0 -0.346714 0.0353429 
140 1 -0.125739 0.0775564 0.494646 0 -0.5 -6.14438 0.015 0 0 -0.346714 0.0353429 
118 1 -0.0372647 0.237681 0.50612 0 -0.5 -6.12604 0.015 0 0 -0.346714 0.0353429 
40 1 -0.104474 0.254198 0.495931 0 -0.5 -6.14232 0.025 0 0 -1.60516 0.163625 
117 1 -0.0596227 -0.0209792 0.523352 0 -0.5 -6.09837 0.015 0 0 -0.346714 0.0353429 
148 1 -0.176067 0.118307 0.544502 -0.171679 -0.397353 -6.14771 0.015 0 0 -0.346714 0.0353429 
51 1 -0.1596 -0.0074073 0.551755 -0.0265052 -0.519812 -6.04647 0.025 0 0 -1.60516 0.163625 
282 1 -0.00822765 0.046159 0.555956 -0.2609 -0.673185 -6.02629 0.015 0 0 -0.346714 0.0353429 
11 1 -0.0985229 0.149212 0.604265 0.022917 -0.457889 -5.98519 0.025 0 0 -1.60516 0.163625 
90 1 -0.146535 0.255667 0.588703 0 -0.5 -5.99233 0.015 0 0 -0.346714 0.0353429 
60 1 -0.0770515 -0.0120724 0.610797 0 -0.5 -5.95603 0.015 0 0 -0.346714 0.0353429 
50 1 -0.130982 0.212355 0.612412 0 -0.5 -5.95338 0.025 0 0 -1.60516 0.163625 
105 1 -0.206144 0.144918 0.656932 -0.321192 -0.368687 -5.8689 0.015 0 0 -0.346714 0.0353429 
74 1 -0.0790012 0.199893 0.64873 0 -0.5 -5.89325 0.015 0 0 -0.346714 0.0353429 
76 1 -0.0202065 0.22807 0.665246 0 -0.5 -5.86568 0.015 0 0 -0.346714 0.0353429 
44 1 -0.125916 -0.0204035 0.676247 0 -0.5 -5.84724 0.025 0 0 -1.60516 0.163625 
29 1 -0.0788351 0.242182 0.692291 0 -0.5 -5.82026 0.025 0 0 -1.60516 0.163625 
36 1 -0.103411 0.0263125 0.69851 0 -0.5 -5.80976 0.025 0 0 -1.60516 0.163625 
54 1 -0.161938 0.0600284 0.720733 -0.0956439 -0.529683 -5.75846 0.015 0 0 -0.346714 0.0353429 
114 1 -0.0720429 0.0564693 0.735229 -0.00040144 -0.499666 -5.74755 0.015 0 0 -0.346714 0.0353429 
73 1 -0.0639552 0.00576667 0.766458 0 -0.5 -5.69391 0.015 0 0 -0.346714 0.0353429 
2 1 -0.110349 0.153071 0.772364 0 -0.5 -5.6837 0.025 0 0 -1.60516 0.163625 
12 1 -0.0363281 0.262336 0.787968 0 -0.5 -5.65673 0.025 0 0 -1.60516 0.163625 
113 1 -0.118506 0.277198 0.759889 0 -0.5 -5.70519 0.015 0 0 -0.346714 0.0353429 
146 1 -0.109965 -0.00708367 0.789537 0 -0.5 -5.65398 0.015 0 0 -0.346714 0.0353429 
57 1 -0.120673 0.109061 0.817459 0 -0.5 -5.60532 0.015 0 0 -0.346714 0.0353429 
88 1 -0.0666498 0.219919 0.806186 0 -0.5 -5.62504 0.015 0 0 -0.346714 0.0353429 
99 1 -0.146283 0.0575171 0.830616 0 -0.5 -5.58227 0.015 0 0 -0.346714 0.0353429 
10 1 -0.0731442 0.218252 0.846847 0.0635655 -0.375939 -5.63896 0.025 0 0 -1.60516 0.163625 
66 1 -0.0281121 0.0448228 0.874899 0 -0.5 -5.50389 0.015 0 0 -0.346714 0.0353429 
83 1 -0.108229 0.087146 0.866856 0 -0.5 -5.51821 0.015 0 0 -0.346714 0.0353429 
19 1 -0.0715757 0.0672524 0.870762 0 -0.5 -5.51124 0.025 0 0 -1.60516 0.163625 
34 1 -0.138562 0.226511 0.860946 0 -0.5 -5.52871 0.025 0 0 -1.60516 0.163625 
67 1 -0.0183057 0.000388676 0.90196 0 -0.5 -5.45543 0.015 0 0 -0.346714 0.0353429 
81 1 -0.0441065 0.233829 0.88318 0.07636 -0.438847 -5.4514 0.015 0 0 -0.346714 0.0353429 
71 1 -0.145263 0.270198 0.883537 0 -0.5 -5.48849 0.015 0 0 -0.346714 0.0353429 
24 1 -0.138394 0.0274519 0.915195 0 -0.5 -5.43159 0.025 0 0 -1.60516 0.163625 
133 1 -0.127566 0.143944 0.924525 0 -0.5 -5.41471 0.015 0 0 -0.346714 0.0353429 
95 1 -0.10482 0.231312 0.928251 0 -0.5 -5.40794 0.015 0 0 -0.346714 0.0353429 
39 1 -0.0696793 0.28101 0.928373 0 -0.5 -5.40775 0.025 0 0 -1.60516 0.163625 
70 1 -0.107191 0.0539244 0.967521 0 -0.5 -5.33623 0.015 0 0 -0.346714 0.0353429 
103 1 -0.135939 0.0717223 0.954532 0 -0.5 -5.36007 0.015 0 0 -0.346714 0.0353429 
143 1 -0.11631 0.289682 0.963791 0 -0.5 -5.3431 0.015 0 0 -0.346714 0.0353429 
28 1 -0.0685748 0.0300701 0.994143 0 -0.5 -5.28709 0.025 0 0 -1.60516 0.163625 
97 1 -0.0338223 0.057144 0.984609 0 -0.5 -5.30474 0.015 0 0 -0.346714 0.0353429 
115 1 -0.076478 0.0924311 0.985038 0 -0.5 -5.30396 0.015 0 0 -0.346714 0.0353429 
85 1 -0.13789 0.214015 0.987579 0 -0.5 -5.29925 0.015 0 0 -0.346714 0.0353429 
126 1 -0.12083 0.141477 1.01605 -0.0288748 -0.539424 -5.22259 0.015 0 0 -0.346714 0.0353429 
134 1 -0.137197 0.254367 1.00453 0 -0.5 -5.26776 0.015 0 0 -0.346714 0.0353429 
77 1 -0.0297287 0.282749 1.01194 0 -0.5 -5.25393 0.015 0 0 -0.346714 0.0353429 
120 1 -0.148569 0.303261 1.01406 0 -0.5 -5.25 0.015 0 0 -0.346714 0.0353429 
96 1 -0.131998 0.0570814 1.03232 0 -0.5 -5.21577 0.015 0 0 -0.346714 0.0353429 
38 1 -0.121616 0.0981879 1.05357 0 -0.5 -5.17564 0.025 0 0 -1.60516 0.163625 
150 1 -0.100106 0.0692069 1.11588 0 -0.5 -5.05616 0.015 0 0 -0.346714 0.0353429 
130 1 -0.0642546 0.0924407 1.09298 0 -0.5 -5.1004 0.015 0 0 -0.346714 0.0353429 
23 1 -0.134189 0.234519 1.09206 0 -0.5 -5.10217 0.025 0 0 -1.60516 0.163625 
18 1 -0.106015 0.299686 1.11714 0 -0.5 -5.05371 0.025 0 0 -1.60516 0.163625 
4 1 -0.0330873 0.312857 1.11634 0 -0.5 -5.05528 0.025 0 0 -1.60516 0.163625 
31 1 -0.140814 0.0348773 1.1306 0 -0.5 -5.02751 0.025 0 0 -1.60516 0.163625 
106 1 -0.130677 0.378704 1.14922 -0.0998962 -0.230395 -5.13625 0.015 0 0 -0.346714 0.0353429 
110 1 -0.0868918 0.0244165 1.15706 0 -0.5 -4.97562 0.015 0 0 -0.346714 0.0353429 
93 1 -0.0244706 0.0361578 1.17041 0 -0.5 -4.94923 0.015 0 0 -0.346714 0.0353429 
17 1 -0.134634 0.150027 1.17713 0 -0.5 -4.93589 0.025 0 0 -1.60516 0.163625 
136 1 -0.0832352 0.243008 1.17387 0 -0.5 -4.94236 0.015 0 0 -0.346714 0.0353429 
30 1 -0.0481876 0.270857 1.18162 0 -0.5 -4.92696 0.025 0 0 -1.60516 0.163625 
109 1 -0.0676248 0.31808 1.18058 0 -0.5 -4.92902 0.015 0 0 -0.346714 0.0353429 
108 1 -0.089121 0.0568235 1.22194 0 -0.5 -4.84603 0.015 0 0 -0.346714 0.0353429 
1 1 -0.147895 0.436208 1.22988 -0.021394 -0.0706631 -5.00121 0.025 0 0 -1.60516 0.163625 
69 1 -0.020474 0.0770825 1.2434 0 -0.5 -4.80237 0.015 0 0 -0.346714 0.0353429 
35 1 -0.146938 0.250792 1.24977 0 -0.5 -4.78933 0.025 0 0 -1.60516 0.163625 
102 1 -0.11709 0.0568995 1.27929 0 -0.5 -4.7285 0.015 0 0 -0.346714 0.0353429 
14 1 -0.0571303 0.0489755 1.28952 0 -0.5 -4.70722 0.025 0 0 -1.60516 0.163625 
139 1 -0.104092 0.114572 1.27914 0 -0.5 -4.7288 0.015 0 0 -0.346714 0.0353429 
144 1 -0.0691235 0.117474 1.27825 0 -0.5 -4.73066 0.015 0 0 -0.346714 0.0353429 
149 1 -0.0603675 0.166104 1.29395 0.199959 -0.45766 -4.93597 0.015 0 0 -0.346714 0.0353429 
22 1 -0.102489 0.182306 1.27432 0 -0.5 -4.7388 0.025 0 0 -1.60516 0.163625 
55 1 -0.0959992 0.288398 1.29398 -7.52477e-06 -0.49998 -4.69793 0.015 0 0 -0.346714 0.0353429 
141 1 -0.136875 0.130264 1.30346 0 -0.5 -4.67808 0.015 0 0 -0.346714 0.0353429 
87 1 -0.113676 0.251588 1.33103 0 -0.5 -4.61991 0.015 0 0 -0.346714 0.0353429 
21 1 -0.0470047 0.3335 1.31716 0 -0.5 -4.64924 0.025 0 0 -1.60516 0.163625 
107 1 -0.141609 0.0459477 1.3557 0 -0.5 -4.56723 0.015 0 0 -0.346714 0.0353429 
94 1 -0.206248 0.237378 1.33715 -0.356499 -0.190573 -4.68547 0.015 0 0 -0.346714 0.0353429 
112 1 -0.073338 0.129279 1.37999 0 -0.5 -4.51474 0.015 0 0 -0.346714 0.0353429 
84 1 -0.116406 0.209786 1.37679 0 -0.5 -4.52171 0.015 0 0 -0.346714 0.0353429 
147 1 -0.100309 0.321431 1.37044 0 -0.5 -4.53544 0.015 0 0 -0.346714 0.0353429 
142 1 -0.0724928 0.0707478 1.40003 0 -0.5 -4.47099 0.015 0 0 -0.346714 0.0353429 
6 1 -0.0849011 0.109413 1.42191 0.101461 -0.428163 -4.43017 0.025 0 0 -1.60516 0.163625 
80 1 -0.102893 0.256893 1.4166 0 -0.5 -4.4345 0.015 0 0 -0.346714 0.0353429 
47 1 -0.140465 0.29345 1.40012 0 -0.5 -4.4708 0.025 0 0 -1.60516 0.163625 
145 1 -0.0934491 0.286113 1.402 0 -0.5 -4.46668 0.015 0 0 -0.346714 0.0353429 
32 1 -0.164417 0.054665 1.44504 -0.0613285 -0.540948 -4.36723 0.025 0 0 -1.60516 0.163625 
135 1 -0.140472 0.138893 1.44323 0 -0.5 -4.37515 0.015 0 0 -0.346714 0.0353429 
15 1 -0.0825818 0.20899 1.4472 0.0430154 -0.390763 -4.32297 0.025 0 0 -1.60516 0.163625 
62 1 -0.0849655 0.346406 1.44298 0 -0.5 -4.37574 0.015 0 0 -0.346714 0.0353429 
138 1 -0.0317395 0.0733156 1.46065 0 -0.5 -4.33591 0.015 0 0 -0.346714 0.0353429 
128 1 -0.145291 0.223677 1.46218 0 -0.5 -4.33247 0.015 0 0 -0.346714 0.0353429 
121 1 -0.0679495 0.328078 1.48051 0 -0.5 -4.29078 0.015 0 0 -0.346714 0.0353429 
280 1 -0.0335291 0.445538 1.46942 -0.323138 -0.0374805 -4.43782 0.015 0 0 -0.346714 0.0353429 
129 1 -0.0553418 0.0971994 1.514 0 -0.5 -4.21348 0.015 0 0 -0.346714 0.0353429 
52 1 -0.100497 0.0824895 1.545 0 -0.5 -4.14069 0.015 0 0 -0.346714 0.0353429 
61 1 -0.0231802 0.0669348 1.53754 0 -0.5 -4.15835 0.015 0 0 -0.346714 0.0353429 
79 1 -0.0179342 0.100984 1.53761 0 -0.5 -4.15815 0.015 0 0 -0.346714 0.0353429 
13 1 -0.146779 0.179821 1.52729 0 -0.5 -4.18248 0.025 0 0 -1.60516 0.163625 
101 1 -0.102489 0.189824 1.52359 0 -0.5 -4.19111 0.015 0 0 -0.346714 0.0353429 
91 1 -0.124131 0.286132 1.53803 0 -0.5 -4.15717 0.015 0 0 -0.346714 0.0353429 
37 1 -0.0716655 0.292665 1.52308 0 -0.5 -4.19229 0.025 0 0 -1.60516 0.163625 
46 1 -0.032303 0.354569 1.52782 0 -0.5 -4.1812 0.025 0 0 -1.60516 0.163625 
5 1 -0.137704 0.110412 1.55467 0 -0.5 -4.11773 0.025 0 0 -1.60516 0.163625 
7 1 -0.0712578 0.149449 1.55767 0 -0.5 -4.11057 0.025 0 0 -1.60516 0.163625 
20 1 -0.124339 0.237888 1.55167 0 -0.5 -4.1249 0.025 0 0 -1.60516 0.163625 
58 1 -0.0969698 0.183891 1.60469 0 -0.5 -3.99678 0.015 0 0 -0.346714 0.0353429 
86 1 -0.142939 0.279059 1.58919 0 -0.5 -4.03464 0.015 0 0 -0.346714 0.0353429 
124 1 -0.136447 0.309377 1.60458 0 -0.5 -3.99707 0.015 0 0 -0.346714 0.0353429 
9 1 -0.0320364 0.313159 1.59226 0 -0.5 -4.02719 0.025 0 0 -1.60516 0.163625 
65 1 -0.147981 0.0870967 1.61691 0 -0.5 -3.96666 0.015 0 0 -0.346714 0.0353429 
41 1 -0.107908 0.364758 1.61462 0 -0.5 -3.97235 0.025 0 0 -1.60516 0.163625 
132 1 -0.0234712 0.120168 1.66636 0 -0.5 -3.84247 0.015 0 0 -0.346714 0.0353429 
48 1 -0.144727 0.177852 1.66565 0 -0.5 -3.84423 0.025 0 0 -1.60516 0.163625 
104 1 -0.138444 0.251217 1.64992 0 -0.5 -3.88416 0.015 0 0 -0.346714 0.0353429 
131 1 -0.025873 0.35204 1.64151 0 -0.5 -3.90535 0.015 0 0 -0.346714 0.0353429 
49 1 -0.0613084 0.0977105 1.68353 0 -0.5 -3.79832 0.025 0 0 -1.60516 0.163625 
53 1 -0.106432 0.22234 1.66751 0 -0.5 -3.83952 0.015 0 0 -0.346714 0.0353429 
16 1 -0.129915 0.321079 1.68624 0 -0.5 -3.79136 0.025 0 0 -1.60516 0.163625 
82 1 -0.0851821 0.311627 1.69173 0 -0.5 -3.77713 0.015 0 0 -0.346714 0.0353429 
27 1 -0.0637137 0.347885 1.6868 0 -0.5 -3.78988 0.025 0 0 -1.60516 0.163625 
25 1 -0.104447 0.131785 1.72444 0 -0.5 -3.69119 0.025 0 0 -1.60516 0.163625 
127 1 -0.0304133 0.143621 1.71476 0 -0.5 -3.7168 0.015 0 0 -0.346714 0.0353429 
63 1 -0.147823 0.377713 1.69977 0 -0.5 -3.75614 0.015 0 0 -0.346714 0.0353429 
56 1 -0.11556 0.375119 1.71465 0 -0.5 -3.71709 0.015 0 0 -0.346714 0.0353429 
42 1 -0.132916 0.224796 1.7367 0 -0.5 -3.65843 0.025 0 0 -1.60516 0.163625 
123 1 -0.11925 0.281492 1.7398 0 -0.5 -3.65009 0.015 0 0 -0.346714 0.0353429 
64 1 -0.145219 0.345177 1.75154 0 -0.5 -3.6184 0.015 0 0 -0.346714 0.0353429 
125 1 -0.0960051 0.337127 1.75312 0 -0.5 -3.61419 0.015 0 0 -0.346714 0.0353429 
392 1 -0.0201822 0.0953766 1.76556 0 -0.5 -3.58024 0.015 0 0 -0.346714 0.0353429 
361 1 -0.0655065 0.123159 1.76347 0 -0.5 -3.58593 0.015 0 0 -0.346714 0.0353429 
375 1 -0.132504 0.160213 1.77134 0 -0.5 -3.56435 0.015 0 0 -0.346714 0.0353429 
353 1 -0.0778865 0.17651 1.7872 0 -0.5 -3.5204 0.015 0 0 -0.346714 0.0353429 
391 1 -0.0665259 0.32219 1.76462 0 -0.5 -3.58279 0.015 0 0 -0.346714 0.0353429 
370 1 -0.0476722 0.394061 1.78718 0 -0.5 -3.5205 0.015 0 0 -0.346714 0.0353429 
449 1 -0.121601 0.10097 1.80625 0 -0.5 -3.46694 0.015 0 0 -0.346714 0.0353429 
432 1 -0.110656 0.236023 1.79726 0 -0.5 -3.49225 0.015 0 0 -0.346714 0.0353429 
423 1 -0.035066 0.340352 1.79591 0 -0.5 -3.49607 0.015 0 0 -0.346714 0.0353429 
348 1 -0.0455768 0.113538 1.82008 -0.0150753 -0.514502 -3.42279 0.025 0 0 -1.60516 0.163625 
409 1 -0.1116 0.208279 1.82608 0 -0.5 -3.41033 0.015 0 0 -0.346714 0.0353429 
304 1 -0.147639 0.334299 1.8453 0 -0.5 -3.35461 0.025 0 0 -1.60516 0.163625 
434 1 -0.110177 0.368235 1.82435 0 -0.5 -3.41534 0.015 0 0 -0.346714 0.0353429 
414 1 -0.12165 0.278412 1.86956 0 -0.5 -3.2829 0.015 0 0 -0.346714 0.0353429 
416 1 -0.148865 0.299752 1.87852 0 -0.5 -3.25602 0.015 0 0 -0.346714 0.0353429 
327 1 -0.047146 0.371396 1.86569 0 -0.5 -3.29448 0.025 0 0 -1.60516 0.163625 
307 1 -0.141488 0.140316 1.90194 0 -0.5 -3.1847 0.025 0 0 -1.60516 0.163625 
368 1 -0.0426125 0.146103 1.88223 0 -0.5 -3.24484 0.015 0 0 -0.346714 0.0353429 
328 1 -0.101567 0.17136 1.89379 0 -0.5 -3.20972 0.025 0 0 -1.60516 0.163625 
342 1 -0.0942786 0.322007 1.89464 0 -0.5 -3.20707 0.025 0 0 -1.60516 0.163625 
422 1 -0.0856494 0.362628 1.88094 0 -0.5 -3.24876 0.015 0 0 -0.346714 0.0353429 
441 1 -0.0895132 0.400957 1.90222 0 -0.5 -3.18382 0.015 0 0 -0.346714 0.0353429 
440 1 -0.074831 0.122633 1.91138 0 -0.5 -3.15547 0.015 0 0 -0.346714 0.0353429 
388 1 -0.0545692 0.186686 1.93106 0 -0.5 -3.09367 0.015 0 0 -0.346714 0.0353429 
323 1 -0.131477 0.255813 1.92968 0 -0.5 -3.09808 0.025 0 0 -1.60516 0.163625 
352 1 -0.144025 0.359939 1.919 0 -0.5 -3.13173 0.015 0 0 -0.346714 0.0353429 
406 1 -0.0920408 0.359666 1.93687 0 -0.5 -3.07523 0.015 0 0 -0.346714 0.0353429 
330 1 -0.125578 0.416028 1.92208 0 -0.5 -3.12202 0.025 0 0 -1.60516 0.163625 
418 1 -0.0554251 0.13294 1.96444 0 -0.5 -2.98595 0.015 0 0 -0.346714 0.0353429 
395 1 -0.110093 0.183872 1.96924 0 -0.5 -2.97016 0.015 0 0 -0.346714 0.0353429 
318 1 -0.126425 0.333158 1.9628 0 -0.5 -2.99135 0.025 0 0 -1.60516 0.163625 
336 1 -0.025747 0.366523 1.96864 0 -0.5 -2.97212 0.025 0 0 -1.60516 0.163625 
331 1 -0.138106 0.127831 1.97357 0 -0.5 -2.95584 0.025 0 0 -1.60516 0.163625 
313 1 -0.0392615 0.171689 1.98269 0 -0.5 -2.92543 0.025 0 0 -1.60516 0.163625 
315 1 -0.0970947 0.238406 1.9987 0 -0.5 -2.87118 0.025 0 0 -1.60516 0.163625 
407 1 -0.0713596 0.366089 1.99969 0 -0.5 -2.86784 0.015 0 0 -0.346714 0.0353429 
374 1 -0.133879 0.393467 1.98428 0 -0.5 -2.92003 0.015 0 0 -0.346714 0.0353429 
310 1 -0.0919271 0.403993 1.99672 0 -0.5 -2.87795 0.025 0 0 -1.60516 0.163625 
377 1 -0.128279 0.15572 2.02502 0 -0.5 -2.77985 0.015 0 0 -0.346714 0.0353429 
445 1 -0.0938501 0.308643 2.00927 0 -0.5 -2.83488 0.015 0 0 -0.346714 0.0353429 
386 1 -0.118095 0.37711 2.02233 0 -0.5 -2.78926 0.015 0 0 -0.346714 0.0353429 
302 1 -0.0567477 0.153316 2.04839 0 -0.5 -2.69607 0.025 0 0 -1.60516 0.163625 
401 1 -0.0913429 0.18478 2.04707 0 -0.5 -2.70088 0.015 0 0 -0.346714 0.0353429 
314 1 -0.136534 0.221236 2.05435 0 -0.5 -2.67429 0.025 0 0 -1.60516 0.163625 
439 1 -0.132801 0.271897 2.04507 0 -0.5 -2.70813 0.015 0 0 -0.346714 0.0353429 
344 1 -0.147144 0.309445 2.03583 0 -0.5 -2.74139 0.025 0 0 -1.60516 0.163625 
431 1 -0.13363 0.181651 2.07315 0 -0.5 -2.60444 0.015 0 0 -0.346714 0.0353429 
355 1 -0.0483468 0.200759 2.06836 0 -0.5 -2.6224 0.015 0 0 -0.346714 0.0353429 
446 1 -0.116317 0.338626 2.08709 0 -0.5 -2.55137 0.015 0 0 -0.346714 0.0353429 
354 1 -0.0927402 0.369498 2.0721 0 -0.5 -2.60837 0.015 0 0 -0.346714 0.0353429 
413 1 -0.0512121 0.370816 2.06431 0 -0.5 -2.6375 0.015 0 0 -0.346714 0.0353429 
442 1 -0.149932 0.430171 2.06519 0 -0.5 -2.63427 0.015 0 0 -0.346714 0.0353429 
408 1 -0.087028 0.438439 2.07114 0 -0.5 -2.612 0.015 0 0 -0.346714 0.0353429 
350 1 -0.147794 0.191395 2.12124 0 -0.5 -2.41648 0.025 0 0 -1.60516 0.163625 
399 1 -0.074527 0.204048 2.1139 0 -0.5 -2.44611 0.015 0 0 -0.346714 0.0353429 
335 1 -0.126459 0.252418 2.12111 0 -0.5 -2.41707 0.025 0 0 -1.60516 0.163625 
436 1 -0.0854574 0.258951 2.11348 0 -0.5 -2.44778 0.015 0 0 -0.346714 0.0353429 
341 1 -0.148816 0.372228 2.1152 0 -0.5 -2.44091 0.025 0 0 -1.60516 0.163625 
411 1 -0.0485728 0.421056 2.09221 0 -0.5 -2.53165 0.015 0 0 -0.346714 0.0353429 
382 1 -0.110614 0.448091 2.09723 0.026541 -0.439017 -2.64759 0.015 0 0 -0.346714 0.0353429 
389 1 -0.0230912 0.445676 2.11594 0 -0.5 -2.43797 0.015 0 0 -0.346714 0.0353429 
324 1 -0.0498553 0.158703 2.12738 0 -0.5 -2.39147 0.025 0 0 -1.60516 0.163625 
437 1 -0.0723044 0.235232 2.13208 0 -0.5 -2.37214 0.015 0 0 -0.346714 0.0353429 
385 1 -0.0696212 0.381365 2.12535 0 -0.5 -2.39981 0.015 0 0 -0.346714 0.0353429 
394 1 -0.145405 0.410684 2.14675 0 -0.5 -2.31063 0.015 0 0 -0.346714 0.0353429 
384 1 -0.147406 0.453104 2.1263 -0.135564 -0.440896 -2.43091 0.015 0 0 -0.346714 0.0353429 
427 1 -0.114135 0.442164 2.13598 0.0988458 -0.172977 -2.68482 0.015 0 0 -0.346714 0.0353429 
358 1 -0.127277 0.182792 2.16228 0 -0.5 -2.24373 0.015 0 0 -0.346714 0.0353429 
367 1 -0.106717 0.215831 2.15368 0 -0.5 -2.28101 0.015 0 0 -0.346714 0.0353429 
376 1 -0.0824761 0.227772 2.17441 0 -0.5 -2.19007 0.015 0 0 -0.346714 0.0353429 
326 1 -0.145564 0.312454 2.16332 0 -0.5 -2.23922 0.025 0 0 -1.60516 0.163625 
424 1 -0.119297 0.421041 2.15953 -0.0730123 -0.390635 -2.27226 0.015 0 0 -0.346714 0.0353429 
426 1 -0.0179373 0.440964 2.15344 0 -0.5 -2.28209 0.015 0 0 -0.346714 0.0353429 
319 1 -0.0687817 0.462025 2.16068 0 -0.5 -2.25069 0.025 0 0 -1.60516 0.163625 
433 1 -0.118613 0.168665 2.18884 0 -0.5 -2.12444 0.015 0 0 -0.346714 0.0353429 
420 1 -0.037203 0.176826 2.19092 0 -0.5 -2.11483 0.015 0 0 -0.346714 0.0353429 
402 1 -0.101682 0.212287 2.19292 0 -0.5 -2.10551 0.015 0 0 -0.346714 0.0353429 
363 1 -0.0911777 0.289327 2.20581 0 -0.5 -2.04459 0.015 0 0 -0.346714 0.0353429 
360 1 -0.116599 0.313221 2.20492 0 -0.5 -2.0489 0.015 0 0 -0.346714 0.0353429 
306 1 -0.116739 0.390034 2.19226 0 -0.5 -2.10855 0.025 0 0 -1.60516 0.163625 
397 1 -0.0557758 0.401618 2.20788 0 -0.5 -2.03458 0.015 0 0 -0.346714 0.0353429 
371 1 -0.0449321 0.440104 2.20398 0 -0.5 -2.05332 0.015 0 0 -0.346714 0.0353429 
412 1 -0.0937388 0.460584 2.19553 0 -0.5 -2.09334 0.015 0 0 -0.346714 0.0353429 
322 1 -0.131733 0.197689 2.22251 -0 0 -2 0.025 0 0 0 0.163625 
308 1 -0.0755208 0.211588 2.24133 -0 0 -2 0.025 0 0 0 0.163625 
398 1 -0.0484497 0.240461 2.23525 -0 0 -2 0.015 0 0 0 0.0353429 
438 1 -0.0987495 0.291508 2.24231 -0 0 -2 0.015 0 0 0 0.0353429 
373 1 -0.136858 0.343079 2.22744 -0 0 -2 0.015 0 0 0 0.0353429 
396 1 -0.0958984 0.364505 2.22364 -0 0 -2 0.015 0 0 0 0.0353429 
369 1 -0.138958 0.401078 2.22895 -0 0 -2 0.015 0 0 0 0.0353429 
383 1 -0.0262689 0.419173 2.22954 -0 0 -2 0.015 0 0 0 0.0353429 
381 1 -0.0827007 0.433694 2.2207 -0 0 -2 0.015 0 0 0 0.0353429 
415 1 -0.127182 0.240475 2.25363 -0 0 -2 0.015 0 0 0 0.0353429 
343 1 -0.140775 0.298259 2.25758 -0 0 -2 0.025 0 0 0 0.163625 
356 1 -0.111476 0.333774 2.24617 -0 0 -2 0.015 0 0 0 0.0353429 
443 1 -0.0906469 0.387283 2.2525 -0 0 -2 0.015 0 0 0 0.0353429 
349 1 -0.116564 0.417399 2.25979 -0 0 -2 0.025 0 0 0 0.163625 
351 1 -0.0409452 0.415267 2.26239 -0 0 -2 0.015 0 0 0 0.0353429 
340 1 -0.149237 0.461517 2.24589 -0 0 -2 0.025 0 0 0 0.163625 
390 1 -0.0988461 0.19568 2.27464 -0 0 -2 0.015 0 0 0 0.0353429 
448 1 -0.0329565 0.20149 2.28732 -0 0 -2 0.015 0 0 0 0.0353429 
347 1 -0.0548177 0.23798 2.29065 -0 0 -2 0.025 0 0 0 0.163625 
362 1 -0.0154426 0.229504 2.30342 -0 0 -2 0.015 0 0 0 0.0353429 
378 1 -0.121409 0.285313 2.29455 -0 0 -2 0.015 0 0 0 0.0353429 
312 1 -0.134707 0.344673 2.2952 -0 0 -2 0.025 0 0 0 0.163625 
359 1 -0.107325 0.388274 2.29951 -0 0 -2 0.015 0 0 0 0.0353429 
417 1 -0.0160313 0.444009 2.29519 -0 0 -2 0.015 0 0 0 0.0353429 
346 1 -0.149998 0.46436 2.30009 -0 0 -2 0.025 0 0 0 0.163625 
419 1 -0.111609 0.178994 2.30511 -0 0 -2 0.015 0 0 0 0.0353429 
421 1 -0.0930175 0.256927 2.31348 -0 0 -2 0.015 0 0 0 0.0353429 
303 1 -0.0551599 0.406314 2.30367 -0 0 -2 0.025 0 0 0 0.163625 
365 1 -0.146907 0.425762 2.31802 -0 0 -2 0.015 0 0 0 0.0353429 
334 1 -0.103439 0.440728 2.3099 -0 0 -2 0.025 0 0 0 0.163625 
309 1 -0.144284 0.205271 2.35406 -0 0 -2 0.025 0 0 0 0.163625 
320 1 -0.0648735 0.208579 2.3444 -0 0 -2 0.025 0 0 0 0.163625 
430 1 -0.123083 0.250988 2.36062 -0 0 -2 0.015 0 0 0 0.0353429 
403 1 -0.0833248 0.256507 2.36257 -0 0 -2 0.015 0 0 0 0.0353429 
325 1 -0.117824 0.294875 2.33562 -0 0 -2 0.025 0 0 0 0.163625 
372 1 -0.0702168 0.391047 2.34778 -0 0 -2 0.015 0 0 0 0.0353429 
387 1 -0.0901615 0.367162 2.35618 -0 0 -2 0.015 0 0 0 0.0353429 
447 1 -0.122284 0.473304 2.34495 -0 0 -2 0.015 0 0 0 0.0353429 
338 1 -0.0583644 0.458496 2.35525 -0 0 -2 0.025 0 0 0 0.163625 
379 1 -0.0327871 0.203074 2.37203 -0 0 -2 0.015 0 0 0 0.0353429 
357 1 -0.0584785 0.247404 2.39025 -0 0 -2 0.015 0 0 0 0.0353429 
393 1 -0.015571 0.425619 2.36966 -0 0 -2 0.015 0 0 0 0.0353429 
329 1 -0.123479 0.457221 2.39285 -0 0 -2 0.025 0 0 0 0.163625 
316 1 -0.0983119 0.181261 2.39441 -0 0 -2 0.025 0 0 0 0.163625 
364 1 -0.0453235 0.209912 2.40259 -0 0 -2 0.015 0 0 0 0.0353429 
321 1 -0.126579 0.250186 2.40326 -0 0 -2 0.025 0 0 0 0.163625 
410 1 -0.145474 0.298701 2.40635 -0 0 -2 0.015 0 0 0 0.0353429 
333 1 -0.0978849 0.312107 2.40392 -0 0 -2 0.025 0 0 0 0.163625 
380 1 -0.127355 0.355901 2.39931 -0 0 -2 0.015 0 0 0 0.0353429 
337 1 -0.142368 0.393123 2.41388 -0 0 -2 0.025 0 0 0 0.163625 
301 1 -0.0884221 0.421264 2.39536 -0 0 -2 0.025 0 0 0 0.163625 
428 1 -0.0387226 0.430102 2.39862 -0 0 -2 0.015 0 0 0 0.0353429 
450 1 -0.0322061 0.474788 2.39945 -0 0 -2 0.015 0 0 0 0.0353429 
425 1 -0.074083 0.175677 2.45145 -0 0 -2 0.015 0 0 0 0.0353429 
332 1 -0.0814262 0.231721 2.44118 -0 0 -2 0.025 0 0 0 0.163625 
400 1 -0.135353 0.274705 2.44382 -0 0 -2 0.015 0 0 0 0.0353429 
339 1 -0.0802774 0.437645 2.45107 -0 0 -2 0.025 0 0 0 0.163625 
305 1 -0.0452536 0.474362 2.45145 -0 0 -2 0.025 0 0 0 0.163625 
404 1 -0.119976 0.192749 2.46739 -0 0 -2 0.015 0 0 0 0.0353429 
311 1 -0.0354402 0.189328 2.45916 -0 0 -2 0.025 0 0 0 0.163625 
345 1 -0.128178 0.236209 2.46486 -0 0 -2 0.025 0 0 0 0.163625 
435 1 -0.0960728 0.272801 2.46772 -0 0 -2 0.015 0 0 0 0.0353429 
317 1 -0.129905 0.313645 2.45665 -0 0 -2 0.025 0 0 0 0.163625 
366 1 -0.144217 0.391047 2.45491 -0 0 -2 0.015 0 0 0 0.0353429 
405 1 -0.038992 0.42438 2.45904 -0 0 -2 0.015 0 0 0 0.0353429 
444 1 -0.0159467 0.465681 2.4796 -0 0 -2 0.015 0 0 0 0.0353429 
289 1 0.101248 0.230551 0.0694074 0.0203384 -0.134604 -6.92047 0.015 0 0 -0.346714 0.0353429 
284 1 0.0665128 -0.0578478 0.21893 -0.0310215 -0.613333 -6.61519 0.015 0 0 -0.346714 0.0353429 
203 1 0.0667127 -0.0527672 0.268131 0 -0.5 -6.49597 0.015 0 0 -0.346714 0.0353429 
206 1 0.105829 -0.0245016 0.261976 0.057048 -0.582454 -6.53965 0.015 0 0 -0.346714 0.0353429 
199 1 0.0895702 0.120662 0.253281 -0.00278668 -0.321029 -6.59213 0.025 0 0 -1.60516 0.163625 
213 1 0.0350777 0.18657 0.268312 0 -0.5 -6.49568 0.015 0 0 -0.346714 0.0353429 
272 1 0.0168276 0.221548 0.262348 0 -0.5 -6.5047 0.015 0 0 -0.346714 0.0353429 
259 1 0.149131 -0.0121735 0.300357 0 -0.5 -6.44712 0.015 0 0 -0.346714 0.0353429 
237 1 0.137079 0.0152051 0.295659 0.0724848 -0.475593 -6.44465 0.015 0 0 -0.346714 0.0353429 
171 1 0.0955264 0.149107 0.29952 0 -0.5 -6.44839 0.025 0 0 -1.60516 0.163625 
214 1 0.144386 0.133733 0.280188 0 -0.5 -6.47773 0.015 0 0 -0.346714 0.0353429 
226 1 0.110692 0.195304 0.293266 0 -0.5 -6.45791 0.015 0 0 -0.346714 0.0353429 
241 1 0.0849537 0.217018 0.285956 0 -0.5 -6.46899 0.015 0 0 -0.346714 0.0353429 
263 1 0.025742 0.00849374 0.315406 0 -0.5 -6.42416 0.015 0 0 -0.346714 0.0353429 
116 1 0.0623542 0.13157 0.331741 0.36535 -0.287166 -6.4804 0.015 0 0 -0.346714 0.0353429 
220 1 0.0102906 -0.0423876 0.351856 -0.0669262 -0.554313 -6.36195 0.015 0 0 -0.346714 0.0353429 
177 1 0.171544 0.131108 0.349302 0.112606 -0.398162 -6.37696 0.025 0 0 -1.60516 0.163625 
184 1 0.11251 0.249841 0.394571 0 -0.5 -6.30213 0.025 0 0 -1.60516 0.163625 
249 1 0.0491797 0.187421 0.423266 0 -0.5 -6.25729 0.015 0 0 -0.346714 0.0353429 
290 1 0.155024 0.200519 0.40558 0.0439512 -0.299137 -6.2506 0.015 0 0 -0.346714 0.0353429 
166 1 0.0609489 0.251253 0.4022 0 -0.5 -6.29026 0.025 0 0 -1.60516 0.163625 
270 1 0.0946744 0.179669 0.439694 0 -0.5 -6.23149 0.015 0 0 -0.346714 0.0353429 
216 1 0.0954962 -0.0289887 0.476155 0.0481324 -0.610657 -6.15433 0.015 0 0 -0.346714 0.0353429 
222 1 0.123753 -0.0103386 0.46441 0 -0.5 -6.19245 0.015 0 0 -0.346714 0.0353429 
294 1 0.128315 0.212152 0.459209 0 -0.5 -6.20069 0.015 0 0 -0.346714 0.0353429 
180 1 0.0362894 0.00479969 0.512793 -0.021889 -0.504465 -6.10974 0.025 0 0 -1.60516 0.163625 
253 1 0.123075 0.0970692 0.515478 0 -0.5 -6.11103 0.015 0 0 -0.346714 0.0353429 
231 1 0.0350342 0.20962 0.50845 0 -0.5 -6.12231 0.015 0 0 -0.346714 0.0353429 
170 1 0.199337 0.188567 0.490522 0.161731 -0.381986 -6.16403 0.025 0 0 -1.60516 0.163625 
169 1 0.0892107 0.218668 0.536022 0 -0.5 -6.07797 0.025 0 0 -1.60516 0.163625 
209 1 0.0969746 -0.0147524 0.571526 0 -0.5 -6.02038 0.015 0 0 -0.346714 0.0353429 
278 1 0.113612 0.119965 0.613545 0 -0.5 -5.95152 0.015 0 0 -0.346714 0.0353429 
296 1 0.146983 0.101001 0.615807 0 -0.5 -5.94779 0.015 0 0 -0.346714 0.0353429 
257 1 0.139837 0.232641 0.614148 0 -0.5 -5.95054 0.015 0 0 -0.346714 0.0353429 
168 1 0.0261487 0.0221037 0.663607 0 -0.5 -5.86843 0.025 0 0 -1.60516 0.163625 
269 1 0.141487 0.0175043 0.660079 0 -0.5 -5.87431 0.015 0 0 -0.346714 0.0353429 
162 1 0.0478022 0.222457 0.653793 0 -0.5 -5.88481 0.025 0 0 -1.60516 0.163625 
235 1 0.134937 -0.0116153 0.678474 0 -0.5 -5.84351 0.015 0 0 -0.346714 0.0353429 
185 1 0.0936576 0.0666661 0.686948 0 -0.5 -5.82928 0.025 0 0 -1.60516 0.163625 
217 1 0.133752 0.0676912 0.676607 0 -0.5 -5.84665 0.015 0 0 -0.346714 0.0353429 
182 1 0.114565 0.177779 0.67193 0 -0.5 -5.8545 0.025 0 0 -1.60516 0.163625 
286 1 0.147755 0.26687 0.675319 0 -0.5 -5.84881 0.015 0 0 -0.346714 0.0353429 
176 1 0.0399362 0.274472 0.676715 0 -0.5 -5.84645 0.025 0 0 -1.60516 0.163625 
153 1 0.0895866 -0.0172402 0.717576 0 -0.5 -5.77749 0.025 0 0 -1.60516 0.163625 
211 1 0.0694768 0.0409716 0.741819 0 -0.5 -5.73619 0.015 0 0 -0.346714 0.0353429 
251 1 0.126174 0.135559 0.733485 0 -0.5 -5.75041 0.015 0 0 -0.346714 0.0353429 
291 1 0.140432 0.211523 0.760175 0 -0.5 -5.7047 0.015 0 0 -0.346714 0.0353429 
159 1 0.087245 0.270208 0.761836 0 -0.5 -5.70185 0.025 0 0 -1.60516 0.163625 
300 1 0.149285 0.26424 0.777768 0 -0.5 -5.67438 0.015 0 0 -0.346714 0.0353429 
204 1 0.134881 0.0292481 0.790328 0 -0.5 -5.65261 0.015 0 0 -0.346714 0.0353429 
161 1 0.135356 0.0868496 0.789037 0 -0.5 -5.65486 0.025 0 0 -1.60516 0.163625 
230 1 0.118982 0.127372 0.810905 0 -0.5 -5.6168 0.015 0 0 -0.346714 0.0353429 
228 1 0.0279693 0.236593 0.798977 0 -0.5 -5.6376 0.015 0 0 -0.346714 0.0353429 
175 1 0.0941494 0.0220588 0.835183 0 -0.5 -5.57422 0.025 0 0 -1.60516 0.163625 
293 1 0.0548164 0.0611452 0.877325 0 -0.5 -5.49957 0.015 0 0 -0.346714 0.0353429 
192 1 0.134392 0.185049 0.865255 0 -0.5 -5.52105 0.025 0 0 -1.60516 0.163625 
285 1 0.0870748 0.222259 0.867349 0 -0.5 -5.51733 0.015 0 0 -0.346714 0.0353429 
256 1 0.0868225 0.254057 0.860494 0 -0.5 -5.52949 0.015 0 0 -0.346714 0.0353429 
250 1 0.138716 0.268193 0.857175 0 -0.5 -5.53538 0.015 0 0 -0.346714 0.0353429 
246 1 0.0494565 0.28901 0.868288 0 -0.5 -5.51566 0.015 0 0 -0.346714 0.0353429 
240 1 0.0956629 0.28588 0.871263 0 -0.5 -5.51036 0.015 0 0 -0.346714 0.0353429 
299 1 0.0153001 0.0455412 0.887309 0 -0.5 -5.48172 0.015 0 0 -0.346714 0.0353429 
200 1 0.112803 0.078149 0.907974 0 -0.5 -5.44463 0.025 0 0 -1.60516 0.163625 
275 1 0.0211058 0.268962 0.88511 0 -0.5 -5.48564 0.015 0 0 -0.346714 0.0353429 
202 1 0.126943 0.0201189 0.924084 0 -0.5 -5.4155 0.015 0 0 -0.346714 0.0353429 
245 1 0.0868358 0.0457147 0.937807 0 -0.5 -5.39058 0.015 0 0 -0.346714 0.0353429 
255 1 0.0340792 0.236865 0.91584 0 -0.5 -5.43041 0.015 0 0 -0.346714 0.0353429 
252 1 0.131256 0.245424 0.915846 0 -0.5 -5.43041 0.015 0 0 -0.346714 0.0353429 
189 1 0.0509787 0.019512 0.968389 0 -0.5 -5.33466 0.025 0 0 -1.60516 0.163625 
247 1 0.0532922 0.0735654 0.960042 0 -0.5 -5.34997 0.015 0 0 -0.346714 0.0353429 
154 1 0.116388 0.165122 0.983964 0 -0.5 -5.30592 0.025 0 0 -1.60516 0.163625 
190 1 0.11779 0.278732 0.996195 0 -0.5 -5.28326 0.025 0 0 -1.60516 0.163625 
287 1 0.130384 0.0103502 1.00543 0 -0.5 -5.26609 0.015 0 0 -0.346714 0.0353429 
288 1 0.0326968 0.0554455 1.01868 0 -0.5 -5.24137 0.015 0 0 -0.346714 0.0353429 
295 1 0.103955 0.224828 1.02269 0 -0.5 -5.23382 0.015 0 0 -0.346714 0.0353429 
156 1 0.0411221 0.273187 1.0259 0 -0.5 -5.22783 0.025 0 0 -1.60516 0.163625 
210 1 0.0872868 0.0173864 1.05904 0 -0.5 -5.16525 0.015 0 0 -0.346714 0.0353429 
165 1 0.148355 0.108191 1.05435 0 -0.5 -5.17417 0.025 0 0 -1.60516 0.163625 
181 1 0.070397 0.0563443 1.06895 0 -0.5 -5.14641 0.025 0 0 -1.60516 0.163625 
260 1 0.0198171 0.0651197 1.1061 0 -0.5 -5.07509 0.015 0 0 -0.346714 0.0353429 