ITEM: TIMESTEP
18400
ITEM: NUMBER OF ATOMS
300
ITEM: BOX BOUNDS mm mm mm
-1 1
-1 1
-0.05 2.85
ITEM: ATOMS id type x y z vx vy vz radius fx fy fz mass 
68 1 -0.0997213 0.153271 1.71473 0 -0.5 -3.7169 0.015 0 0 -0.346714 0.0353429 
45 1 -0.0943793 0.104238 1.73384 0 -0.5 -3.66608 0.025 0 0 -1.60516 0.163625 
122 1 -0.0715206 0.16392 1.73398 0.00811842 -0.517403 -3.66446 0.015 0 0 -0.346714 0.0353429 
137 1 -0.0868943 0.196971 1.72393 -0.00924354 -0.479856 -3.69404 0.015 0 0 -0.346714 0.0353429 
43 1 -0.116198 0.255785 1.74793 0 -0.5 -3.62821 0.025 0 0 -1.60516 0.163625 
33 1 -0.129286 0.344605 1.72977 0 -0.5 -3.67697 0.025 0 0 -1.60516 0.163625 
111 1 -0.0487783 0.3881 1.74832 0 -0.5 -3.62714 0.015 0 0 -0.346714 0.0353429 
119 1 -0.0370509 0.0931886 1.75348 0 -0.5 -3.61321 0.015 0 0 -0.346714 0.0353429 
75 1 -0.0493142 0.143672 1.76494 0 -0.5 -3.58191 0.015 0 0 -0.346714 0.0353429 
89 1 -0.129145 0.172308 1.76916 0 -0.5 -3.57034 0.015 0 0 -0.346714 0.0353429 
59 1 -0.0865612 0.300868 1.77848 0 -0.5 -3.54463 0.015 0 0 -0.346714 0.0353429 
78 1 -0.0422369 0.351955 1.75862 0 -0.5 -3.59918 0.015 0 0 -0.346714 0.0353429 
116 1 -0.0428665 0.214274 1.79126 0.36535 -0.287166 -3.65512 0.015 0 0 -0.346714 0.0353429 
92 1 -0.131017 0.395327 1.78831 0 -0.5 -3.51736 0.015 0 0 -0.346714 0.0353429 
8 1 -0.104188 0.111463 1.83498 0 -0.5 -3.38463 0.025 0 0 -1.60516 0.163625 
26 1 -0.094854 0.192281 1.82598 0.14857 -0.341553 -3.48641 0.025 0 0 -1.60516 0.163625 
98 1 -0.147127 0.244442 1.82425 0 -0.5 -3.41563 0.015 0 0 -0.346714 0.0353429 
3 1 -0.141317 0.309388 1.8399 0 -0.5 -3.37041 0.025 0 0 -1.60516 0.163625 
151 1 -0.0686397 0.326527 1.82388 0 -0.5 -3.41671 0.015 0 0 -0.346714 0.0353429 
100 1 -0.0681017 0.179921 1.86041 0 -0.5 -3.31017 0.015 0 0 -0.346714 0.0353429 
140 1 -0.125739 0.221556 1.85739 0 -0.5 -3.3191 0.015 0 0 -0.346714 0.0353429 
72 1 -0.105673 0.346796 1.84832 0 -0.5 -3.34578 0.015 0 0 -0.346714 0.0353429 
118 1 -0.0372647 0.381681 1.86358 0 -0.5 -3.30076 0.015 0 0 -0.346714 0.0353429 
40 1 -0.104474 0.398198 1.85808 0 -0.5 -3.31704 0.025 0 0 -1.60516 0.163625 
51 1 -0.151966 0.142299 1.8863 -0.0265052 -0.519812 -3.22119 0.025 0 0 -1.60516 0.163625 
117 1 -0.0596227 0.123021 1.87284 0 -0.5 -3.27309 0.015 0 0 -0.346714 0.0353429 
60 1 -0.0770515 0.131928 1.91929 0 -0.5 -3.13075 0.015 0 0 -0.346714 0.0353429 
148 1 -0.126624 0.232744 1.9082 -0.171679 -0.397353 -3.32243 0.015 0 0 -0.346714 0.0353429 
11 1 -0.104535 0.282163 1.92033 0 -0.5 -3.12751 0.025 0 0 -1.60516 0.163625 
50 1 -0.130982 0.356355 1.92015 0 -0.5 -3.1281 0.025 0 0 -1.60516 0.163625 
90 1 -0.146535 0.399667 1.90765 0 -0.5 -3.16705 0.015 0 0 -0.346714 0.0353429 
44 1 -0.125916 0.123597 1.95341 0 -0.5 -3.02196 0.025 0 0 -1.60516 0.163625 
105 1 -0.116361 0.246107 1.94418 -0.215094 -0.173726 -3.19363 0.015 0 0 -0.346714 0.0353429 
74 1 -0.0790012 0.343893 1.93914 0 -0.5 -3.06797 0.015 0 0 -0.346714 0.0353429 
29 1 -0.0788351 0.386182 1.96168 0 -0.5 -2.99498 0.025 0 0 -1.60516 0.163625 
76 1 -0.0202065 0.37207 1.94772 0 -0.5 -3.0404 0.015 0 0 -0.346714 0.0353429 
36 1 -0.103411 0.170312 1.96488 0 -0.5 -2.98448 0.025 0 0 -1.60516 0.163625 
114 1 -0.0719272 0.200373 1.98368 -0.00040144 -0.499666 -2.92227 0.015 0 0 -0.346714 0.0353429 
54 1 -0.134392 0.212577 1.97233 -0.0956439 -0.529683 -2.93318 0.015 0 0 -0.346714 0.0353429 
146 1 -0.109965 0.136916 2.01104 0 -0.5 -2.8287 0.015 0 0 -0.346714 0.0353429 
73 1 -0.0639552 0.149767 1.99946 0 -0.5 -2.86863 0.015 0 0 -0.346714 0.0353429 
2 1 -0.110349 0.297071 2.00243 0 -0.5 -2.85842 0.025 0 0 -1.60516 0.163625 
88 1 -0.0666498 0.363919 2.01936 0 -0.5 -2.79976 0.015 0 0 -0.346714 0.0353429 
113 1 -0.118506 0.421198 1.99614 0 -0.5 -2.87991 0.015 0 0 -0.346714 0.0353429 
12 1 -0.0363281 0.406336 2.01027 0 -0.5 -2.83145 0.025 0 0 -1.60516 0.163625 
99 1 -0.146283 0.201517 2.03147 0 -0.5 -2.75699 0.015 0 0 -0.346714 0.0353429 
66 1 -0.0281121 0.188823 2.05318 0 -0.5 -2.67861 0.015 0 0 -0.346714 0.0353429 
83 1 -0.108229 0.231146 2.04926 0 -0.5 -2.69293 0.015 0 0 -0.346714 0.0353429 
19 1 -0.0715757 0.211252 2.05116 0 -0.5 -2.68596 0.025 0 0 -1.60516 0.163625 
57 1 -0.120673 0.253061 2.02495 0 -0.5 -2.78004 0.015 0 0 -0.346714 0.0353429 
34 1 -0.138562 0.370511 2.04637 0 -0.5 -2.70343 0.025 0 0 -1.60516 0.163625 
67 1 -0.0183057 0.144389 2.06628 0 -0.5 -2.63015 0.015 0 0 -0.346714 0.0353429 
24 1 -0.138394 0.171452 2.07265 0 -0.5 -2.60631 0.025 0 0 -1.60516 0.163625 
133 1 -0.127566 0.287944 2.07712 0 -0.5 -2.58943 0.015 0 0 -0.346714 0.0353429 
10 1 -0.0946292 0.323977 2.06214 0.0800593 -0.36273 -2.80387 0.025 0 0 -1.60516 0.163625 
95 1 -0.10482 0.375312 2.0789 0 -0.5 -2.58266 0.015 0 0 -0.346714 0.0353429 
81 1 -0.051385 0.371999 2.0551 0 -0.5 -2.67154 0.015 0 0 -0.346714 0.0353429 
71 1 -0.145263 0.414198 2.05738 0 -0.5 -2.66321 0.015 0 0 -0.346714 0.0353429 
39 1 -0.0696793 0.42501 2.07896 0 -0.5 -2.58247 0.025 0 0 -1.60516 0.163625 
28 1 -0.0685748 0.17407 2.10998 0 -0.5 -2.46181 0.025 0 0 -1.60516 0.163625 
70 1 -0.107191 0.197924 2.09752 0 -0.5 -2.51095 0.015 0 0 -0.346714 0.0353429 
97 1 -0.0338223 0.201144 2.10553 0 -0.5 -2.47946 0.015 0 0 -0.346714 0.0353429 
103 1 -0.135939 0.215722 2.09139 0 -0.5 -2.53479 0.015 0 0 -0.346714 0.0353429 
115 1 -0.076478 0.236431 2.10574 0 -0.5 -2.47868 0.015 0 0 -0.346714 0.0353429 
126 1 -0.112514 0.296831 2.11332 -0.0288748 -0.539424 -2.39731 0.015 0 0 -0.346714 0.0353429 
85 1 -0.13789 0.358015 2.10692 0 -0.5 -2.47397 0.015 0 0 -0.346714 0.0353429 
134 1 -0.137197 0.398367 2.1148 0 -0.5 -2.44248 0.015 0 0 -0.346714 0.0353429 
143 1 -0.11631 0.433682 2.09576 0 -0.5 -2.51782 0.015 0 0 -0.346714 0.0353429 
96 1 -0.131998 0.201081 2.12762 0 -0.5 -2.39049 0.015 0 0 -0.346714 0.0353429 
38 1 -0.121616 0.242188 2.13732 0 -0.5 -2.35036 0.025 0 0 -1.60516 0.163625 
120 1 -0.148569 0.447261 2.11922 0 -0.5 -2.42472 0.015 0 0 -0.346714 0.0353429 
77 1 -0.0297287 0.426749 2.11824 0 -0.5 -2.42865 0.015 0 0 -0.346714 0.0353429 
31 1 -0.140814 0.178877 2.17169 0 -0.5 -2.20223 0.025 0 0 -1.60516 0.163625 
150 1 -0.100106 0.213207 2.16522 0 -0.5 -2.23088 0.015 0 0 -0.346714 0.0353429 
130 1 -0.0642546 0.236441 2.15505 0 -0.5 -2.27512 0.015 0 0 -0.346714 0.0353429 
23 1 -0.134189 0.378519 2.15465 0 -0.5 -2.27689 0.025 0 0 -1.60516 0.163625 
18 1 -0.106015 0.443686 2.16576 0 -0.5 -2.22843 0.025 0 0 -1.60516 0.163625 
4 1 -0.0330873 0.456857 2.16542 0 -0.5 -2.23 0.025 0 0 -1.60516 0.163625 
110 1 -0.0868918 0.168417 2.1832 0 -0.5 -2.15034 0.015 0 0 -0.346714 0.0353429 
93 1 -0.0244706 0.180158 2.18895 0 -0.5 -2.12395 0.015 0 0 -0.346714 0.0353429 
17 1 -0.134634 0.294027 2.19183 0 -0.5 -2.11061 0.025 0 0 -1.60516 0.163625 
136 1 -0.0832352 0.387008 2.19043 0 -0.5 -2.11708 0.015 0 0 -0.346714 0.0353429 
30 1 -0.0481876 0.414857 2.19375 0 -0.5 -2.10168 0.025 0 0 -1.60516 0.163625 
109 1 -0.0676248 0.46208 2.19329 0 -0.5 -2.10374 0.015 0 0 -0.346714 0.0353429 
102 1 -0.11709 0.195969 2.23474 -0 0 -2 0.015 0 0 0 0.0353429 
108 1 -0.089121 0.200824 2.21075 0 -0.5 -2.02075 0.015 0 0 -0.346714 0.0353429 
69 1 -0.020474 0.219918 2.21967 -0 0 -2 0.015 0 0 0 0.0353429 
139 1 -0.104092 0.253657 2.23467 -0 0 -2 0.015 0 0 0 0.0353429 
144 1 -0.0691235 0.256654 2.2343 -0 0 -2 0.015 0 0 0 0.0353429 
22 1 -0.102489 0.321901 2.23263 -0 0 -2 0.025 0 0 0 0.163625 
35 1 -0.146938 0.392962 2.22232 -0 0 -2 0.025 0 0 0 0.163625 
106 1 -0.102883 0.446824 2.21843 -0 0 -2 0.015 0 0 0 0.0353429 
107 1 -0.141609 0.176798 2.26762 -0 0 -2 0.015 0 0 0 0.0353429 
14 1 -0.0571303 0.18696 2.23907 -0 0 -2 0.025 0 0 0 0.163625 
141 1 -0.136875 0.266764 2.24501 -0 0 -2 0.015 0 0 0 0.0353429 
87 1 -0.113676 0.385123 2.25687 -0 0 -2 0.015 0 0 0 0.0353429 
55 1 -0.0959971 0.425903 2.24097 -0 0 -2 0.015 0 0 0 0.0353429 
1 1 -0.142366 0.459394 2.25437 -0 0 -2 0.025 0 0 0 0.163625 
21 1 -0.0470047 0.46853 2.25088 -0 0 -2 0.025 0 0 0 0.163625 
142 1 -0.0724928 0.196693 2.28723 -0 0 -2 0.015 0 0 0 0.0353429 
149 1 -0.107316 0.253342 2.2869 -0 0 -2 0.015 0 0 0 0.0353429 
112 1 -0.073338 0.257454 2.27831 -0 0 -2 0.015 0 0 0 0.0353429 
94 1 -0.127866 0.29863 2.27384 -0 0 -2 0.015 0 0 0 0.0353429 
84 1 -0.116406 0.338316 2.2769 -0 0 -2 0.015 0 0 0 0.0353429 
80 1 -0.102893 0.380978 2.29468 -0 0 -2 0.015 0 0 0 0.0353429 
47 1 -0.140465 0.419385 2.28727 -0 0 -2 0.025 0 0 0 0.163625 
145 1 -0.0934491 0.411838 2.28812 -0 0 -2 0.015 0 0 0 0.0353429 
147 1 -0.100309 0.450661 2.27409 -0 0 -2 0.015 0 0 0 0.0353429 
32 1 -0.149633 0.185622 2.30666 -0 0 -2 0.025 0 0 0 0.163625 
138 1 -0.0317395 0.192376 2.31476 -0 0 -2 0.015 0 0 0 0.0353429 
6 1 -0.109435 0.215083 2.29884 -0 0 -2 0.025 0 0 0 0.163625 
135 1 -0.140472 0.259953 2.30676 -0 0 -2 0.015 0 0 0 0.0353429 
15 1 -0.0916636 0.308509 2.30068 -0 0 -2 0.025 0 0 0 0.163625 
128 1 -0.145291 0.342562 2.31547 -0 0 -2 0.015 0 0 0 0.0353429 
121 1 -0.0679495 0.444838 2.32397 -0 0 -2 0.015 0 0 0 0.0353429 
62 1 -0.0849655 0.467496 2.30666 -0 0 -2 0.015 0 0 0 0.0353429 
61 1 -0.0231802 0.176945 2.35097 -0 0 -2 0.015 0 0 0 0.0353429 
52 1 -0.100497 0.1916 2.35456 -0 0 -2 0.015 0 0 0 0.0353429 
129 1 -0.0553418 0.210019 2.33972 -0 0 -2 0.015 0 0 0 0.0353429 
79 1 -0.0179342 0.210984 2.351 -0 0 -2 0.015 0 0 0 0.0353429 
13 1 -0.146779 0.291061 2.34606 -0 0 -2 0.025 0 0 0 0.163625 
101 1 -0.102489 0.301504 2.34429 -0 0 -2 0.015 0 0 0 0.0353429 
20 1 -0.124339 0.346193 2.3578 -0 0 -2 0.025 0 0 0 0.163625 
91 1 -0.124131 0.396082 2.35121 -0 0 -2 0.015 0 0 0 0.0353429 
37 1 -0.0716655 0.404405 2.34405 -0 0 -2 0.025 0 0 0 0.163625 
46 1 -0.032303 0.465744 2.34631 -0 0 -2 0.025 0 0 0 0.163625 
5 1 -0.137704 0.218352 2.35925 -0 0 -2 0.025 0 0 0 0.163625 
7 1 -0.0712578 0.257024 2.36071 -0 0 -2 0.025 0 0 0 0.163625 
58 1 -0.0969698 0.285666 2.38391 -0 0 -2 0.015 0 0 0 0.0353429 
86 1 -0.142939 0.382764 2.37619 -0 0 -2 0.015 0 0 0 0.0353429 
124 1 -0.136447 0.411167 2.38385 -0 0 -2 0.015 0 0 0 0.0353429 
9 1 -0.0320364 0.416484 2.37771 -0 0 -2 0.025 0 0 0 0.163625 
41 1 -0.107908 0.465288 2.38889 -0 0 -2 0.025 0 0 0 0.163625 
65 1 -0.147981 0.187337 2.39004 -0 0 -2 0.015 0 0 0 0.0353429 
132 1 -0.0234712 0.214078 2.41538 -0 0 -2 0.015 0 0 0 0.0353429 
48 1 -0.144727 0.271852 2.41501 -0 0 -2 0.025 0 0 0 0.163625 
53 1 -0.106432 0.3161 2.41598 -0 0 -2 0.015 0 0 0 0.0353429 
104 1 -0.138444 0.347252 2.40686 -0 0 -2 0.015 0 0 0 0.0353429 
131 1 -0.025873 0.449155 2.40254 -0 0 -2 0.015 0 0 0 0.0353429 
49 1 -0.0613084 0.18937 2.42436 -0 0 -2 0.025 0 0 0 0.163625 
25 1 -0.104447 0.217985 2.44621 -0 0 -2 0.025 0 0 0 0.163625 
127 1 -0.0304133 0.231126 2.44099 -0 0 -2 0.015 0 0 0 0.0353429 
16 1 -0.129915 0.412384 2.4258 -0 0 -2 0.025 0 0 0 0.163625 
82 1 -0.0851821 0.402207 2.42869 -0 0 -2 0.015 0 0 0 0.0353429 
27 1 -0.0637137 0.439115 2.42609 -0 0 -2 0.025 0 0 0 0.163625 
63 1 -0.147823 0.467223 2.43296 -0 0 -2 0.015 0 0 0 0.0353429 
56 1 -0.11556 0.462639 2.44092 -0 0 -2 0.015 0 0 0 0.0353429 
42 1 -0.132916 0.309326 2.45288 -0 0 -2 0.025 0 0 0 0.163625 
123 1 -0.11925 0.365597 2.45458 -0 0 -2 0.015 0 0 0 0.0353429 
125 1 -0.0960051 0.419402 2.46192 -0 0 -2 0.015 0 0 0 0.0353429 
64 1 -0.145219 0.427667 2.46104 -0 0 -2 0.015 0 0 0 0.0353429 
289 1 0.0953906 0.269317 1.65566 0.0203384 -0.134604 -4.09519 0.015 0 0 -0.346714 0.0353429 
284 1 0.075447 0.118792 1.71726 -0.0310215 -0.613333 -3.78991 0.015 0 0 -0.346714 0.0353429 
203 1 0.0667127 0.0912328 1.73213 0 -0.5 -3.67069 0.015 0 0 -0.346714 0.0353429 
206 1 0.0885829 0.14297 1.73837 0.129533 -0.558046 -3.69778 0.015 0 0 -0.346714 0.0353429 
237 1 0.117019 0.152451 1.74506 0 -0.5 -3.63596 0.015 0 0 -0.346714 0.0353429 
199 1 0.0903727 0.213118 1.74497 -0.00278668 -0.321029 -3.76685 0.025 0 0 -1.60516 0.163625 
214 1 0.144386 0.277733 1.73893 0 -0.5 -3.65245 0.015 0 0 -0.346714 0.0353429 
213 1 0.0350777 0.33057 1.73223 0 -0.5 -3.6704 0.015 0 0 -0.346714 0.0353429 
241 1 0.0849537 0.361018 1.74219 0 -0.5 -3.64371 0.015 0 0 -0.346714 0.0353429 
226 1 0.110692 0.339304 1.7463 0 -0.5 -3.63263 0.015 0 0 -0.346714 0.0353429 
272 1 0.0168276 0.365548 1.72886 0 -0.5 -3.67942 0.015 0 0 -0.346714 0.0353429 
220 1 0.0295653 0.117255 1.77726 -0.0669262 -0.554313 -3.53667 0.015 0 0 -0.346714 0.0353429 
259 1 0.149131 0.131826 1.75029 0 -0.5 -3.62184 0.015 0 0 -0.346714 0.0353429 
263 1 0.025742 0.152494 1.75873 0 -0.5 -3.59888 0.015 0 0 -0.346714 0.0353429 
177 1 0.139113 0.245779 1.77903 0.112606 -0.398162 -3.55168 0.025 0 0 -1.60516 0.163625 
171 1 0.0955264 0.293107 1.74982 0 -0.5 -3.62311 0.025 0 0 -1.60516 0.163625 
290 1 0.142366 0.286671 1.79891 0.0439512 -0.299137 -3.42532 0.015 0 0 -0.346714 0.0353429 
166 1 0.0609489 0.395253 1.80695 0 -0.5 -3.46498 0.025 0 0 -1.60516 0.163625 
184 1 0.11251 0.393841 1.80274 0 -0.5 -3.47685 0.025 0 0 -1.60516 0.163625 
270 1 0.0946744 0.323669 1.82752 0 -0.5 -3.40621 0.015 0 0 -0.346714 0.0353429 
249 1 0.0491797 0.331421 1.81853 0 -0.5 -3.43201 0.015 0 0 -0.346714 0.0353429 
294 1 0.128315 0.356152 1.83817 0 -0.5 -3.37541 0.015 0 0 -0.346714 0.0353429 
216 1 0.0816341 0.14688 1.84176 0.0481324 -0.610657 -3.32905 0.015 0 0 -0.346714 0.0353429 
222 1 0.123753 0.133661 1.841 0 -0.5 -3.36717 0.015 0 0 -0.346714 0.0353429 
180 1 0.0425934 0.150086 1.86556 -0.021889 -0.504465 -3.28446 0.025 0 0 -1.60516 0.163625 
253 1 0.123075 0.241069 1.86861 0 -0.5 -3.28575 0.015 0 0 -0.346714 0.0353429 
170 1 0.152758 0.298579 1.85892 0.161731 -0.381986 -3.33875 0.025 0 0 -1.60516 0.163625 
231 1 0.0350342 0.35362 1.86483 0 -0.5 -3.29703 0.015 0 0 -0.346714 0.0353429 
209 1 0.0969746 0.129248 1.89856 0 -0.5 -3.1951 0.015 0 0 -0.346714 0.0353429 
282 1 0.0669115 0.240036 1.88469 -0.2609 -0.673185 -3.20101 0.015 0 0 -0.346714 0.0353429 
169 1 0.0892107 0.362668 1.87964 0 -0.5 -3.25269 0.025 0 0 -1.60516 0.163625 
278 1 0.113612 0.263965 1.92074 0 -0.5 -3.12624 0.015 0 0 -0.346714 0.0353429 
296 1 0.146983 0.245001 1.92193 0 -0.5 -3.12251 0.015 0 0 -0.346714 0.0353429 
257 1 0.139837 0.376641 1.92106 0 -0.5 -3.12526 0.015 0 0 -0.346714 0.0353429 
235 1 0.134937 0.132385 1.95456 0 -0.5 -3.01823 0.015 0 0 -0.346714 0.0353429 
168 1 0.0261487 0.166104 1.94687 0 -0.5 -3.04315 0.025 0 0 -1.60516 0.163625 
269 1 0.141487 0.161504 1.94504 0 -0.5 -3.04903 0.015 0 0 -0.346714 0.0353429 
185 1 0.0936576 0.210666 1.95894 0 -0.5 -3.004 0.025 0 0 -1.60516 0.163625 
217 1 0.133752 0.211691 1.9536 0 -0.5 -3.02137 0.015 0 0 -0.346714 0.0353429 
182 1 0.114565 0.321779 1.95118 0 -0.5 -3.02922 0.025 0 0 -1.60516 0.163625 
162 1 0.0478022 0.366457 1.94178 0 -0.5 -3.05953 0.025 0 0 -1.60516 0.163625 
176 1 0.0399362 0.418472 1.95365 0 -0.5 -3.02117 0.025 0 0 -1.60516 0.163625 
286 1 0.147755 0.41087 1.95294 0 -0.5 -3.02353 0.015 0 0 -0.346714 0.0353429 
153 1 0.0895866 0.12676 1.97465 0 -0.5 -2.95221 0.025 0 0 -1.60516 0.163625 
211 1 0.0694768 0.184972 1.987 0 -0.5 -2.91091 0.015 0 0 -0.346714 0.0353429 
251 1 0.126174 0.279559 1.98276 0 -0.5 -2.92513 0.015 0 0 -0.346714 0.0353429 
204 1 0.134881 0.173248 2.01144 0 -0.5 -2.82733 0.015 0 0 -0.346714 0.0353429 
161 1 0.135356 0.23085 2.0108 0 -0.5 -2.82958 0.025 0 0 -1.60516 0.163625 
230 1 0.118982 0.271372 2.0217 0 -0.5 -2.79152 0.015 0 0 -0.346714 0.0353429 
291 1 0.140432 0.355523 1.99629 0 -0.5 -2.87942 0.015 0 0 -0.346714 0.0353429 
228 1 0.0279693 0.380593 2.01577 0 -0.5 -2.81232 0.015 0 0 -0.346714 0.0353429 
159 1 0.087245 0.414208 1.99713 0 -0.5 -2.87657 0.025 0 0 -1.60516 0.163625 
300 1 0.149285 0.40824 2.00515 0 -0.5 -2.8491 0.015 0 0 -0.346714 0.0353429 
175 1 0.0941494 0.166059 2.03372 0 -0.5 -2.74894 0.025 0 0 -1.60516 0.163625 
192 1 0.134392 0.329049 2.04848 0 -0.5 -2.69577 0.025 0 0 -1.60516 0.163625 
285 1 0.0870748 0.366259 2.0495 0 -0.5 -2.69205 0.015 0 0 -0.346714 0.0353429 
256 1 0.0868225 0.398057 2.04615 0 -0.5 -2.70421 0.015 0 0 -0.346714 0.0353429 
250 1 0.138716 0.412193 2.04452 0 -0.5 -2.7101 0.015 0 0 -0.346714 0.0353429 
246 1 0.0494565 0.43301 2.04996 0 -0.5 -2.69038 0.015 0 0 -0.346714 0.0353429 
240 1 0.0956629 0.42988 2.05141 0 -0.5 -2.68508 0.015 0 0 -0.346714 0.0353429 
202 1 0.126943 0.164119 2.07691 0 -0.5 -2.59022 0.015 0 0 -0.346714 0.0353429 
299 1 0.0153001 0.189541 2.0592 0 -0.5 -2.65644 0.015 0 0 -0.346714 0.0353429 
293 1 0.0548164 0.205145 2.05436 0 -0.5 -2.67429 0.015 0 0 -0.346714 0.0353429 
245 1 0.0868358 0.189715 2.08345 0 -0.5 -2.5653 0.015 0 0 -0.346714 0.0353429 
200 1 0.112803 0.222149 2.06919 0 -0.5 -2.61935 0.025 0 0 -1.60516 0.163625 
255 1 0.0340792 0.380865 2.07296 0 -0.5 -2.60513 0.015 0 0 -0.346714 0.0353429 
252 1 0.131256 0.389424 2.07296 0 -0.5 -2.60513 0.015 0 0 -0.346714 0.0353429 
275 1 0.0211058 0.412962 2.05813 0 -0.5 -2.66036 0.015 0 0 -0.346714 0.0353429 
189 1 0.0509787 0.163512 2.09793 0 -0.5 -2.50938 0.025 0 0 -1.60516 0.163625 
287 1 0.130384 0.15435 2.11522 0 -0.5 -2.44081 0.015 0 0 -0.346714 0.0353429 
247 1 0.0532922 0.217565 2.09399 0 -0.5 -2.52469 0.015 0 0 -0.346714 0.0353429 
154 1 0.116388 0.309122 2.10523 0 -0.5 -2.48064 0.025 0 0 -1.60516 0.163625 
190 1 0.11779 0.422732 2.11093 0 -0.5 -2.45798 0.025 0 0 -1.60516 0.163625 
210 1 0.0872868 0.161386 2.13979 0 -0.5 -2.33997 0.015 0 0 -0.346714 0.0353429 
288 1 0.0326968 0.199446 2.12135 0 -0.5 -2.41609 0.015 0 0 -0.346714 0.0353429 
181 1 0.070397 0.200344 2.14428 0 -0.5 -2.32113 0.025 0 0 -1.60516 0.163625 
165 1 0.148355 0.252191 2.13767 0 -0.5 -2.34889 0.025 0 0 -1.60516 0.163625 
295 1 0.103955 0.368828 2.12319 0 -0.5 -2.40854 0.015 0 0 -0.346714 0.0353429 
156 1 0.0411221 0.417187 2.12468 0 -0.5 -2.40255 0.025 0 0 -1.60516 0.163625 
233 1 0.0406697 0.179292 2.16848 0 -0.5 -2.21646 0.015 0 0 -0.346714 0.0353429 
260 1 0.0198171 0.20912 2.16089 0 -0.5 -2.24981 0.015 0 0 -0.346714 0.0353429 
152 1 0.089118 0.267144 2.15687 0 -0.5 -2.26727 0.025 0 0 -1.60516 0.163625 
279 1 0.11959 0.327322 2.16211 0 -0.5 -2.24451 0.015 0 0 -0.346714 0.0353429 
262 1 0.0888361 0.361008 2.16565 0 -0.5 -2.22892 0.015 0 0 -0.346714 0.0353429 
207 1 0.128901 0.378384 2.17595 0 -0.5 -2.1832 0.015 0 0 -0.346714 0.0353429 
234 1 0.0945525 0.410871 2.16273 0 -0.5 -2.24177 0.015 0 0 -0.346714 0.0353429 
208 1 0.0680799 0.447251 2.16644 0 -0.5 -2.22548 0.015 0 0 -0.346714 0.0353429 
194 1 0.131621 0.438036 2.17431 0 -0.5 -2.19056 0.025 0 0 -1.60516 0.163625 
212 1 0.0737637 0.192983 2.19983 0 -0.5 -2.07313 0.015 0 0 -0.346714 0.0353429 
236 1 0.111584 0.206462 2.19984 0 -0.5 -2.07304 0.015 0 0 -0.346714 0.0353429 
191 1 0.0609008 0.407599 2.20183 0 -0.5 -2.06362 0.025 0 0 -1.60516 0.163625 
223 1 0.0343911 0.460571 2.18449 0 -0.5 -2.14445 0.015 0 0 -0.346714 0.0353429 
178 1 0.0370442 0.176531 2.21748 -0 0 -2 0.025 0 0 0 0.163625 
258 1 0.135516 0.183364 2.23748 -0 0 -2 0.015 0 0 0 0.0353429 
224 1 0.132465 0.234727 2.21754 -0 0 -2 0.015 0 0 0 0.0353429 
221 1 0.0987988 0.270466 2.22223 -0 0 -2 0.015 0 0 0 0.0353429 
242 1 0.131055 0.284908 2.21034 0 -0.5 -2.02271 0.015 0 0 -0.346714 0.0353429 
179 1 0.136485 0.334335 2.23333 -0 0 -2 0.025 0 0 0 0.163625 
205 1 0.0941484 0.176621 2.26385 -0 0 -2 0.015 0 0 0 0.0353429 
187 1 0.0681893 0.23526 2.24552 -0 0 -2 0.025 0 0 0 0.163625 
232 1 0.13999 0.251489 2.25933 -0 0 -2 0.015 0 0 0 0.0353429 
248 1 0.0851139 0.371469 2.24056 -0 0 -2 0.015 0 0 0 0.0353429 
174 1 0.030822 0.423363 2.25981 -0 0 -2 0.025 0 0 0 0.163625 
157 1 0.115469 0.419287 2.2475 -0 0 -2 0.025 0 0 0 0.163625 
264 1 0.0357265 0.464363 2.24167 -0 0 -2 0.015 0 0 0 0.0353429 
277 1 0.0674794 0.455945 2.24845 -0 0 -2 0.015 0 0 0 0.0353429 
201 1 0.0267726 0.186335 2.28343 -0 0 -2 0.025 0 0 0 0.163625 
276 1 0.0937292 0.21136 2.27747 -0 0 -2 0.015 0 0 0 0.0353429 
227 1 0.137271 0.1866 2.26932 -0 0 -2 0.015 0 0 0 0.0353429 
158 1 0.0866624 0.276126 2.28274 -0 0 -2 0.025 0 0 0 0.163625 
254 1 0.137401 0.322401 2.28836 -0 0 -2 0.015 0 0 0 0.0353429 
172 1 0.128434 0.362446 2.27847 -0 0 -2 0.025 0 0 0 0.163625 
283 1 0.102888 0.442022 2.29545 -0 0 -2 0.015 0 0 0 0.0353429 
229 1 0.102013 0.176876 2.317 -0 0 -2 0.015 0 0 0 0.0353429 
196 1 0.0520917 0.20732 2.32678 -0 0 -2 0.025 0 0 0 0.163625 
265 1 0.115746 0.204637 2.30081 -0 0 -2 0.015 0 0 0 0.0353429 
225 1 0.0772421 0.22912 2.29896 -0 0 -2 0.015 0 0 0 0.0353429 
271 1 0.0988759 0.311205 2.30576 -0 0 -2 0.015 0 0 0 0.0353429 
274 1 0.108637 0.339608 2.3051 -0 0 -2 0.015 0 0 0 0.0353429 
183 1 0.0737852 0.400871 2.30943 -0 0 -2 0.025 0 0 0 0.163625 
281 1 0.0312292 0.432852 2.32263 -0 0 -2 0.015 0 0 0 0.0353429 
188 1 0.140755 0.442261 2.32841 -0 0 -2 0.025 0 0 0 0.163625 
173 1 0.0548933 0.463589 2.29884 -0 0 -2 0.025 0 0 0 0.163625 
163 1 0.107222 0.236676 2.33243 -0 0 -2 0.025 0 0 0 0.163625 
155 1 0.141768 0.302505 2.33315 -0 0 -2 0.025 0 0 0 0.163625 
268 1 0.140569 0.388665 2.34204 -0 0 -2 0.015 0 0 0 0.0353429 
280 1 0.0367193 0.456786 2.34377 -0 0 -2 0.015 0 0 0 0.0353429 
267 1 0.101401 0.464343 2.34138 -0 0 -2 0.015 0 0 0 0.0353429 
218 1 0.0164873 0.217058 2.36837 -0 0 -2 0.015 0 0 0 0.0353429 
298 1 0.114914 0.351461 2.36045 -0 0 -2 0.015 0 0 0 0.0353429 
238 1 0.105443 0.363301 2.38841 -0 0 -2 0.015 0 0 0 0.0353429 
197 1 0.0581936 0.42558 2.36016 -0 0 -2 0.025 0 0 0 0.163625 
273 1 0.0779061 0.461373 2.36184 -0 0 -2 0.015 0 0 0 0.0353429 
164 1 0.0527853 0.200711 2.40468 -0 0 -2 0.025 0 0 0 0.163625 
160 1 0.118533 0.219824 2.39838 -0 0 -2 0.025 0 0 0 0.163625 
215 1 0.0767991 0.264474 2.40777 -0 0 -2 0.015 0 0 0 0.0353429 
297 1 0.141884 0.27502 2.40554 -0 0 -2 0.015 0 0 0 0.0353429 
195 1 0.147227 0.360394 2.39452 -0 0 -2 0.025 0 0 0 0.163625 
292 1 0.0287531 0.422464 2.40768 -0 0 -2 0.015 0 0 0 0.0353429 
167 1 0.118751 0.462916 2.39272 -0 0 -2 0.025 0 0 0 0.163625 
261 1 0.0852607 0.230216 2.4229 -0 0 -2 0.015 0 0 0 0.0353429 
239 1 0.126558 0.237343 2.44731 -0 0 -2 0.015 0 0 0 0.0353429 
186 1 0.10183 0.291927 2.44008 -0 0 -2 0.025 0 0 0 0.163625 
243 1 0.113126 0.365244 2.4255 -0 0 -2 0.015 0 0 0 0.0353429 
193 1 0.102412 0.413293 2.42052 -0 0 -2 0.025 0 0 0 0.163625 
244 1 0.0497502 0.427977 2.44371 -0 0 -2 0.015 0 0 0 0.0353429 
198 1 0.0617553 0.466461 2.42062 -0 0 -2 0.025 0 0 0 0.163625 
219 1 0.0278687 0.201322 2.45055 -0 0 -2 0.015 0 0 0 0.0353429 
266 1 0.0917737 0.36017 2.45711 -0 0 -2 0.015 0 0 0 0.0353429 
