ITEM: TIMESTEP
280000
ITEM: NUMBER OF ATOMS
14052
ITEM: BOX BOUNDS ff pp ff
-3.75 3.75
-1 1
0 10
ITEM: ATOMS id type x y z ix iy iz vx vy vz fx fy fz omegax omegay omegaz radius 
13821 1 -1.59505 -0.51081 5.06037 0 0 0 0.275183 105.577 -171857 -0.138558 1477.18 -39.8079 4511.3 3783.37 -2558.63 0.05 
9412 1 -2.15414 -0.351664 5.05182 0 0 0 1.89464 14.6513 -171840 -0.451331 75.3091 -39.8079 -9278.38 13846.1 5701.27 0.05 
12795 1 -2.98645 -0.318728 5.13645 0 0 0 496.068 -76.1835 -168732 8.98959 42.7053 -39.8079 -10403.9 3184.62 3882.04 0.05 
13215 1 -0.227488 -0.104153 5.12432 0 0 0 -0.415757 615.338 -169069 0 0.519473 -39.8079 56.5582 22216.6 -6775.57 0.05 
10206 1 -3.22505 0.652258 5.08899 0 0 0 223.625 -338.383 -170107 715.584 -46204.6 -39.8079 5136.14 -10974 -8981.36 0.05 
4371 1 -1.71273 0.39817 5.176 0 0 0 0.978136 -152.086 -167037 -0.173177 -170.38 -39.8079 17513.9 -2599.57 17.1685 0.05 
11397 1 -0.430416 0.754327 5.18421 0 0 0 0.381765 54.7119 -166689 0 -1.4975e+06 -39.8079 9019.46 16450.5 -5556.43 0.05 
7183 1 -0.750527 -0.361568 5.19103 0 0 0 -0.775491 310.248 -166448 0 89.4288 -39.8079 -12783.2 -9045.73 -4366.71 0.05 
13017 1 -1.4873 -0.794907 5.2806 0 0 0 0.909249 573.626 -163153 -0.114108 9.11135e+06 -39.8079 -24189.3 -7438.98 3021.17 0.05 
12202 1 -1.69882 -0.493308 5.24927 0 0 0 179.822 82.5006 -164076 -0.168565 1030.89 -39.8079 9591.61 11592.2 3632.57 0.05 
10576 1 -3.27005 0.235549 5.25348 0 0 0 288.58 -171.664 -164748 1793.8 -9.965 -39.8079 -34639.3 13625.1 1203.32 0.05 
8448 1 -0.483477 -0.79976 5.36662 0 0 0 0.508839 339.378 -159922 0 1.15773e+07 -39.8079 -5624.8 -12451.1 599.922 0.05 
11202 1 -0.850161 0.250591 5.39031 0 0 0 123.447 238.648 -159224 0 -13.0647 -39.8079 -9912.06 27218.7 2176.75 0.05 
13635 1 -1.11898 0.676347 5.37753 0 0 0 1.12983 -248.839 -159669 0 -94873 -39.8079 23219.4 1106.72 3265.97 0.05 
11049 1 -2.64906 -0.218475 5.42862 0 0 0 133.741 -5.5785 -157302 -1.58333 7.27025 -39.8079 18.8217 -15907.8 3665.63 0.05 
9405 1 -1.49413 0.136986 5.43759 0 0 0 152.075 67.4589 -157450 -0.115491 -1.29065 -39.8079 -6349.9 -4238.04 -3403.14 0.05 
12319 1 -0.0529332 0.160877 5.44501 0 0 0 -0.207636 85.6351 -158386 0 -2.26407 -39.8079 -4133.99 98548.8 -3973.59 0.05 
11924 1 -1.4842 -0.940508 5.4819 0 0 0 0.0425371 -102824 -156145 -0.113487 2.16054e+12 -39.8079 -713.479 -4098.91 8296.87 0.05 
13254 1 -1.96442 0.529205 5.4804 0 0 0 -0.150736 27.6434 -155765 -0.291484 -2182.65 -39.8079 -7367.64 -23625.4 3565.41 0.05 
12761 1 -0.541566 0.530993 5.47015 0 0 0 0.273628 -327.09 -156298 0 -2268.7 -39.8079 16792.2 -12762.6 -880.602 0.05 
11242 1 -1.16453 0.579067 5.51193 0 0 0 -0.0422323 -200.71 -155175 0 -6776.4 -39.8079 11388 -13157.8 4496.39 0.05 
8681 1 -0.510983 0.823575 5.53994 0 0 0 -0.925695 -735.573 -153783 0 -4.10719e+07 -39.8079 -50699.1 11980.1 1235.89 0.05 
12566 1 -1.89878 0.273562 5.55756 0 0 0 77.5525 -317.074 -153211 -0.252901 -19.5829 -39.8079 -16700 2013.15 5382.68 0.05 
12900 1 -3.48875 0.802416 5.55495 0 0 0 310.04 -515.611 -151839 809522 -1.32312e+07 -39.8079 -23920.6 40304.7 -3110.64 0.05 
12455 1 -2.35563 -0.308574 5.67938 0 0 0 1.67213 168.304 -148866 -0.750431 35.8686 -39.8079 7925.15 12355.5 -4376.61 0.05 
4032 1 -1.64334 0.243721 5.67649 0 0 0 0.993796 310.862 -148998 -0.151619 -11.5525 -39.8079 9126.22 20299.1 3259.07 0.05 
7677 1 -1.36622 0.537029 5.68313 0 0 0 -0.253296 -136.759 -149126 -0.0927061 -2587.62 -39.8079 -7104.88 7447.28 662.835 0.05 
11415 1 -0.877716 0.825504 5.69591 0 0 0 238.893 -887.482 -148344 0 -4.5845e+07 -39.8079 -96357.5 -10605.3 1405.99 0.05 
8255 1 -3.29347 -0.428768 5.73138 0 0 0 175.974 68.4652 -146740 2982.1 296.891 -39.8079 -29492.7 -11449 4606.84 0.05 
10609 1 -1.77685 -0.32097 5.71044 0 0 0 1.51252 -165.219 -147349 -0.196575 44.3821 -39.8079 27672.1 -1753.56 3676.46 0.05 
13781 1 -2.52481 -0.000986929 5.80643 0 0 0 31.3856 1.24119 -144580 -1.17395 3.92214e-07 -39.8079 5489.15 -18032.1 -657.816 0.05 
12363 1 -3.15158 -0.415094 5.8591 0 0 0 355.596 239.596 -142172 180.357 231.125 -39.8079 8225.56 -3555.31 5490.18 0.05 
7639 1 -0.954663 -0.193159 5.86089 0 0 0 -1.0914 165.7 -141912 0 4.45973 -39.8079 15457.6 21674 1082.4 0.05 
6492 1 -1.69806 0.758402 5.824 0 0 0 110.525 -197.016 -142339 -0.168318 -1.77025e+06 -39.8079 16696.9 -12891.1 2389.16 0.05 
9165 1 -2.4368 -0.769483 5.87771 0 0 0 69.1415 56.88 -141097 -0.930094 2.83126e+06 -39.8079 -44682.4 13410.2 -3042.24 0.05 
6487 1 -3.35858 -0.325575 5.87747 0 0 0 396.813 223.839 -141599 14087.1 48.0365 -39.8079 12836.7 -22377.9 -7704.65 0.05 
13278 1 -2.04419 0.814116 5.90638 0 0 0 147.39 -1155.13 -140221 -0.348568 -2.4362e+07 -39.8079 -69159.6 7820.31 8625.9 0.05 
11852 1 -2.18549 -0.538738 5.94248 0 0 0 209.781 264.782 -138928 -0.487075 2686.6 -39.8079 11897.3 19456.2 984.161 0.05 
10766 1 -2.7766 0.0246915 5.94075 0 0 0 274.323 -645.343 -139270 -1.77029 -0.00618308 -39.8079 -41199.7 -4787.51 941.861 0.05 
12207 1 -0.638594 0.430252 5.95575 0 0 0 -0.261889 -17318 -139063 0 -305.145 -39.8079 -20262.1 -18969.9 601.985 0.05 
3777 1 -2.74094 -0.414568 5.97066 0 0 0 477.102 -46658.1 -137498 -1.79719 228.927 -39.8079 2511.96 -4716.12 -2155.11 0.05 
11713 1 -2.15364 -0.24919 5.98395 0 0 0 187.819 -811.193 -137639 -0.450786 12.7422 -39.8079 12852.1 -8865.71 6541.5 0.05 
9454 1 -2.46722 -0.121752 5.98756 0 0 0 23.8613 148.175 -137789 -1.00847 0.867225 -39.8079 8704.99 5585.32 2765.96 0.05 
3037 1 -0.656133 0.0306995 6.04984 0 0 0 51.9572 -3.79083 -135437 0 -0.0119273 -39.8079 -3964.81 -4136.05 3439.81 0.05 
9289 1 -0.142853 0.319027 6.06153 0 0 0 1.1644 -131.287 -134108 0 -42.9253 -39.8079 -3624.17 -6460.88 4435.75 0.05 
10622 1 -2.53178 -0.515529 6.09878 0 0 0 149.526 3.09152 -132670 -1.19543 1630.73 -39.8079 -19546.9 30099.5 -1973.68 0.05 
9291 1 -0.582915 -0.16387 6.1288 0 0 0 0.867404 -55.9492 -132285 0 2.41912 -39.8079 9808.39 -21308.2 -682.456 0.05 
8417 1 -2.52966 -0.905628 6.18533 0 0 0 9.37304 65623.2 -129879 -1.18888 2.14158e+10 -39.8079 7807.19 -6700.52 1209.71 0.05 
1298 1 -2.32013 -0.554939 6.18025 0 0 0 79.3297 274.916 -130642 -0.684101 3859.41 -39.8079 5833.24 8835.42 -5717.94 0.05 
6601 1 -3.06788 -0.241023 6.17775 0 0 0 222.059 156.804 -130485 41.1674 11.0044 -39.8079 1511.83 7088.19 3380.35 0.05 
11208 1 -0.922921 0.318911 6.27114 0 0 0 -0.489781 -313.998 -127289 0 -42.8403 -39.8079 -18203.6 16205.6 -2992.52 0.05 
10028 1 -3.44763 0.696474 6.2543 0 0 0 386.485 -271.34 -126502 187483 -180457 -39.8079 44558.4 21410.1 2807.04 0.05 
11214 1 -1.90987 0.815 6.29096 0 0 0 194.512 -926.767 -125393 -0.25896 -2.55518e+07 -39.8079 -70915.1 587.244 -4847.1 0.05 
206 1 -2.29137 -0.760992 6.36781 0 0 0 83.4541 64.5045 -122356 -0.635207 1.97176e+06 -39.8079 -18401.5 -18084.4 1061.65 0.05 
2112 1 -1.37486 -0.396681 6.33971 0 0 0 111.049 -54.5446 -124158 -0.0940584 165.908 -39.8079 1233.91 1872.77 1305.06 0.05 
13478 1 -2.79238 0.408045 6.40299 0 0 0 449.637 -45.6356 -121456 -1.71704 -203.433 -39.8079 -10129.5 -26863.5 2476.92 0.05 
4730 1 -2.3509 0.572794 6.41738 0 0 0 334.723 -235.053 -121644 -0.741181 -5837.06 -39.8079 20948.1 -7961.38 -4366.16 0.05 
8660 1 -2.9004 -0.783347 6.43757 0 0 0 534.999 437.513 -119849 0.365908 5.26538e+06 -39.8079 14477.5 -14760.4 -8301.81 0.05 
12559 1 -2.7332 -0.772463 6.44866 0 0 0 32464 38.6256 -119774 -1.79075 3.22479e+06 -39.8079 -43723.8 -25383.5 -13862.8 0.05 
9911 1 -2.30471 -0.190786 6.43572 0 0 0 90.3066 -152.24 -121287 -0.657372 4.25301 -39.8079 -9458.35 6156.14 792.257 0.05 
4350 1 -1.94011 -0.597601 6.50224 0 0 0 93.4383 630.46 -117650 -0.276405 10665.8 -39.8079 -12400.1 -42919.9 4136.68 0.05 
3659 1 -1.15946 -0.612587 6.52255 0 0 0 5.16334 430.71 -117801 0 15623.1 -39.8079 2733.13 11103 -565.496 0.05 
13047 1 -1.47142 -0.505299 6.48896 0 0 0 2.72496 121.487 -118930 -0.110974 1317.43 -39.8079 -5261.26 -2525.86 1985.84 0.05 
9947 1 -0.484501 -0.205942 6.51409 0 0 0 0.987894 -342.507 -117774 0 5.72894 -39.8079 -10103.5 12433.8 10082.9 0.05 
7680 1 -0.230753 0.660125 6.50387 0 0 0 -0.0890154 3.49582 -117826 0 -58118.7 -39.8079 -7670.81 -7350.76 -6526.56 0.05 
11268 1 -1.93233 -0.197471 6.6177 0 0 0 1.76208 -81.2142 -114222 -0.271778 4.8574 -39.8079 29864.8 -3618.73 -685.673 0.05 
12040 1 -3.19453 0.0956543 6.59325 0 0 0 471.713 -356.738 -114849 397.637 -0.394911 -39.8079 15089.1 17082 -86.3417 0.05 
7591 1 -0.677 0.714807 6.63359 0 0 0 -0.00815119 68.7004 -113236 0 -336670 -39.8079 14341 -7770.88 7549.9 0.05 
12192 1 -0.206454 0.18024 6.67472 0 0 0 2.37786 -93.6073 -112466 0 -3.43028 -39.8079 19408.4 -524.192 3250.39 0.05 
8359 1 -2.18627 0.0588804 6.74009 0 0 0 77.7597 -401.521 -109586 -0.488006 -0.0865154 -39.8079 -5819.2 -7486.86 -11905.4 0.05 
13500 1 -0.507376 0.635924 6.6945 0 0 0 1.06112 118915 -111014 0 -29155.8 -39.8079 38161.3 9002.19 3337.92 0.05 
10939 1 -2.74061 0.640979 6.73532 0 0 0 188.799 39.9168 -108479 -1.79699 -33547 -39.8079 3906.56 21481.6 603.853 0.05 
9169 1 -1.88569 -0.730985 6.76116 0 0 0 34.9853 72468.4 -109754 -0.245973 603957 -39.8079 18361.9 -32131.1 19347.1 0.05 
13249 1 -1.23733 -0.755731 6.7654 0 0 0 199.43 541.135 -107671 0 1.58584e+06 -39.8079 -27288.1 23601.4 -625.568 0.05 
8437 1 -3.42143 0.179093 6.77054 0 0 0 584.964 38137.3 -108235 81581.8 -3.34954 -39.8079 19327.7 -34445.8 -4832.02 0.05 
13159 1 -3.56281 0.490512 6.77076 0 0 0 863.383 -477.738 -107355 2.27204e+07 -974.292 -39.8079 -17199.1 -37408.3 -2407.07 0.05 
12032 1 -2.87954 -0.333702 6.84494 0 0 0 290.307 -84.2955 -104733 -0.420442 55.2418 -39.8079 4790.94 -28224.8 3147.42 0.05 
13964 1 -0.207466 -0.237871 6.85945 0 0 0 -1.73267 -435.101 -104936 0 10.3943 -39.8079 -4294.31 -12211.4 -775.338 0.05 
6590 1 -3.56402 -0.132569 6.85833 0 0 0 686.077 131.805 -105312 2.42418e+07 1.15434 -39.8079 6267.37 -36918.6 8012.27 0.05 
9303 1 -0.349095 -0.12084 6.85788 0 0 0 0.589332 122.437 -105137 0 0.845811 -39.8079 -13928.1 -5148.38 933.195 0.05 
1859 1 -2.70055 0.267211 6.86126 0 0 0 110.629 -566.061 -104579 -1.73272 -17.5244 -39.8079 -5784.6 4348.33 5790.38 0.05 
6890 1 -2.16845 0.311028 6.89638 0 0 0 130.388 247.473 -103525 -0.467248 -37.414 -39.8079 2141.05 14005.6 -3014.62 0.05 
12315 1 -3.42084 0.441274 6.85721 0 0 0 198.372 122.554 -105651 80123.3 -374.633 -39.8079 29274.3 -39488.5 7802.64 0.05 
4674 1 -1.60123 0.565114 6.88553 0 0 0 169.282 83.8445 -103803 -0.140149 -4876.02 -39.8079 24967.3 -9431.76 9902.63 0.05 
271 1 -3.47547 -0.161563 6.91687 0 0 0 265.732 194.947 -103281 492969 2.29889 -39.8079 -6456.94 40297.8 -4579.49 0.05 
13236 1 -3.14045 0.157733 6.91034 0 0 0 271.393 -26401 -102743 147.727 -2.11002 -39.8079 1781.1 -1637.86 4576.29 0.05 
14013 1 -3.30285 -0.830377 7.00185 0 0 0 0.470697 1504.56 0.0462748 1.2044e+06 5.62163e+07 402367 -945.677 4.53602 3761.85 0.05 
12327 1 -1.10087 -0.819638 7.00052 0 0 0 0.132926 454.881 0.651744 -273713 3.14507e+07 440521 -3757.11 23.7801 -2247.86 0.05 
6695 1 -0.781352 -0.825465 7.00086 0 0 0 -0.383774 856.254 -2.71173 5.45505e+06 1.10099e+09 1.46081e+07 -791.829 -1.56411 172.85 0.05 
12444 1 -0.778897 -0.791358 7.00751 0 0 0 2.96239 136095 -107.899 -2.84159e+07 -2.24384e+09 -1.5459e+06 1984.21 -3964.33 -3447.28 0.05 
13221 1 -0.460275 -0.827787 6.99937 0 0 0 0.8733 946.338 -271.368 245486 4.60036e+07 1.57549e+06 -9564.31 -3213.93 -552.98 0.05 
11483 1 -1.88843 -0.76682 6.95557 0 0 0 5.0591 4886.35 -101348 -2.93684e+06 -3.14344e+07 6.25885e+08 66156.8 -5669.72 -2367.83 0.05 
13855 1 -1.76231 -0.756285 7.00277 0 0 0 39.4399 50.7422 1.01772 -1.09175e+06 5.10496e+06 1.02836e+06 293.671 589.219 437.742 0.05 
12243 1 -0.704158 -0.750986 7.00116 0 0 0 74.0519 165.859 0.0128283 2.61179e+07 6.88494e+08 -2.37057e+06 -5127.99 336.418 -2877.66 0.05 
11028 1 -0.585255 -0.766214 7.00049 0 0 0 -0.984516 239.197 -0.455961 0 2.45936e+06 -39.8079 -3918.86 -7.42684 5029.43 0.05 
5466 1 -0.115563 -0.782926 7.00644 0 0 0 -0.805782 362.184 -0.587387 -1.4824e+07 -2.56528e+08 1.26649e+07 -6038.85 -8.40352 -2062.09 0.05 
13426 1 -3.28546 -0.734434 7.00829 0 0 0 232.175 169.875 0.983732 -1.19822e+06 5.3289e+06 -402446 -1232.11 3586.1 103.423 0.05 
11386 1 -2.48174 -0.717526 7.00671 0 0 0 283.658 260.079 -189.377 -1.04809 370549 -39.8079 1642.02 7663.69 -797.809 0.05 
10082 1 -0.0747388 -0.701323 7.00175 0 0 0 -0.158583 -56647.2 -5.93382 1.28784e+07 6.82159e+08 -1.64135e+07 -59757.4 112.14 -30527.2 0.05 
11448 1 -3.35271 -0.659181 7.00548 0 0 0 340.226 0.496564 -0.220029 12127.8 56524.7 -39.8079 0.00307506 769.836 372.976 0.05 
9043 1 -2.27784 -0.662275 7.00115 0 0 0 336.617 0.559066 -4.94752 -0.613605 61935.6 -39.8079 234.082 1460.24 -132.83 0.05 
9387 1 -1.88599 -0.635049 7.00107 0 0 0 363.933 148.572 -205.086 -1.46865e+06 6.32453e+07 970718 -8253.86 -3059.42 -3404.19 0.05 
13214 1 -1.70291 -0.641611 7.00819 0 0 0 339.478 265.634 -0.7591 -466586 37078.6 -553541 -3911.62 592.592 6073.73 0.05 
13698 1 -0.546097 -0.635428 7.00077 0 0 0 362.345 193.521 -6.2339 -847750 7.34783e+07 2.3978e+06 -3355.33 2464.29 2342.67 0.05 
3890 1 -3.45614 -0.604567 7.00435 0 0 0 444.445 0.114412 -0.0222775 249526 12714.3 -39.8079 1.2815 3947.3 792.38 0.05 
14036 1 -2.37348 -0.62799 7.00065 0 0 0 394.27 174.657 -77.2311 -0.786459 23483 -39.8079 -5492.48 5111.42 -5038.93 0.05 
7434 1 -1.82355 -0.613106 7.00841 0 0 0 24.0317 10313.1 -4.91138 4.15215e+06 -1.25797e+08 667062 6401.09 581.198 -181.259 0.05 
13329 1 -1.33011 -0.595833 7.00407 0 0 0 428.5 178.599 -1.23257 6.98734e+06 4.81233e+08 3.51098e+06 -1773.43 4237.46 -7099.86 0.05 
1680 1 -1.26734 -0.577549 7.00928 0 0 0 3.0736 77814.2 -241.908 -2.3535e+07 -2.08382e+09 -4.64847e+06 -45131.1 3448.94 -8913.49 0.05 
5912 1 -0.357363 -0.600212 7.0015 0 0 0 424.624 354.881 -2.38223 -618329 6.3865e+07 1.94275e+06 -5808.89 4405.46 4107.71 0.05 
11316 1 -2.8124 -0.558409 7.00167 0 0 0 291.397 156.062 -4.01092 -4.34839e+06 7.92052e+07 -166499 -2895.03 4655.2 -4518.37 0.05 
11479 1 -2.45919 -0.535716 7.00376 0 0 0 299.364 220.074 -309.647 -0.987181 2514.35 -39.8079 -3219.48 -6393.67 6509.08 0.05 
12594 1 -0.815022 -0.549803 7.0068 0 0 0 303.08 -6.30372 -1.33952 126085 76231.7 -330429 -32.5263 4239.71 -303.85 0.05 
10556 1 -0.709823 -0.541043 7.00977 0 0 0 309.125 159.706 0.45969 -18073.8 -593770 1.45231e+06 -5307.58 3795.49 2922.06 0.05 
9307 1 -0.260567 -0.534964 7.00187 0 0 0 291.105 479.22 1.16769 0 2473.35 -39.8079 -3830.5 4721.73 1936.9 0.05 
12205 1 -3.1209 -0.503649 7.0039 0 0 0 228.906 -75.366 -77.5132 517443 210827 -641113 -3160.81 2296.84 -895.19 0.05 
7966 1 -2.02272 -0.520074 7.00054 0 0 0 271.21 261.383 -1.14492 -0.331953 1795.14 -39.8079 -5905.43 4623.78 3846.23 0.05 
10984 1 -1.5036 -0.506183 7.00212 0 0 0 247.255 161.732 -391.119 -14084.4 257663 -680054 -3873.07 4338.98 493.013 0.05 
13525 1 -1.37252 -0.49143 7.00929 0 0 0 219.285 325.504 -54.3436 -1.86471e+06 -805303 -102934 -3494.09 1947.49 4099.57 0.05 
5517 1 -3.46272 -0.433787 6.99997 0 0 0 7019.8 -4.29034 -2.34358 -6.16902e+07 1.46012e+06 1.14771e+06 14.795 -4104.19 4924.52 0.05 
6295 1 -3.22321 -0.47328 7.00766 0 0 0 125.987 193.463 -205.863 1.06124e+06 1.22708e+08 4.59635e+06 -6477.07 409.056 5538.96 0.05 
13644 1 -2.1581 -0.467882 7.00082 0 0 0 109.753 266.15 -158.031 -1.61294e+07 -6.58153e+08 -1.0182e+07 3809.76 -315.174 7976.62 0.05 
7418 1 -1.68383 -0.450859 6.99893 0 0 0 -0.638587 164.234 -269.142 9.04721e+06 1.02421e+09 2.73418e+07 2363.05 -2169.68 780.575 0.05 
3483 1 -0.639655 -0.47165 7.0094 0 0 0 131.645 131.098 -0.932084 18073.8 597266 -1.45239e+06 -4511.08 1713.34 2251.14 0.05 
6072 1 -3.06717 -0.415778 7.00586 0 0 0 0.777217 -120.627 -100.472 40.6601 234.02 -39.8079 -2648.17 -4321.84 -1513.01 0.05 
11339 1 -2.07381 -0.372558 7.00538 0 0 0 6.20869 269.725 -117.589 -2.09569e+07 -7.11908e+08 5.04739e+06 -5641.9 -4625.46 2945.24 0.05 
12492 1 -1.42302 -0.404043 7.00859 0 0 0 -0.51558 284.147 -257.148 -0.10206 189.288 -39.8079 -2755.5 5907.27 4906.39 0.05 
2539 1 -1.1615 -0.407865 7.0089 0 0 0 0 0.00139917 -0.00027468 0 202.774 -39.8079 0 0 0 0.05 
6261 1 -0.77594 -0.372343 6.99827 0 0 0 0.305139 1.68447 -309.061 0 107.926 -39.8079 -1149.23 3748.88 41.1164 0.05 
11157 1 -0.354934 -0.412042 7.00165 0 0 0 -0.363799 253.589 -0.0298065 0 218.675 -39.8079 -2619.93 -3.18921 5536.32 0.05 
12860 1 -0.240012 -0.409111 7.00328 0 0 0 -2.305 291.767 0.140173 -2.50534e+06 1.23767e+08 -555656 -2301.02 -11.3663 -3894.74 0.05 
3298 1 -2.40106 -0.35156 7.00654 0 0 0 65.2208 251.121 -207.485 -0.8459 75.1743 -39.8079 -7407.33 4969.75 -8391.18 0.05 
13080 1 -1.63019 -0.326604 7.0038 0 0 0 197.391 53.9233 -0.363176 -0.147915 48.8937 -39.8079 -100.293 1306.03 -2443.19 0.05 
11927 1 -1.26368 -0.326909 7.00107 0 0 0 0.226221 -336.624 -0.503281 -0.0783713 49.151 -39.8079 1481.56 0.0700482 588.26 0.05 
246 1 -1.97672 -0.307298 7.00776 0 0 0 260.68 227.106 -0.510824 -0.299492 35.0906 -39.8079 -4401.5 1334.13 -10537.5 0.05 
13413 1 -0.751366 -0.272274 7.00848 0 0 0 1.58708 4.50822 -73.1866 328211 2.0318e+06 -71279.1 3106.47 62.6701 24.523 0.05 
13443 1 -2.6246 -0.235689 7.00552 0 0 0 313.667 297.296 -303.127 -1.44251e+07 5.71834e+08 1.43873e+06 -9238.41 -1777.36 1989.27 0.05 
4622 1 -1.82136 -0.211528 7.01013 0 0 0 247.524 -333.481 -1.49573 -0.215143 6.37592 -39.8079 1618.76 921.204 5554.22 0.05 
11055 1 -1.58693 -0.223724 7.00949 0 0 0 258.914 155.768 -3.97531 4.11068e+08 -7.05622e+08 -3.084e+07 -3420.74 976.741 6615.12 0.05 
9031 1 -1.07493 -0.255677 7.00495 0 0 0 -0.349827 0.558171 -0.133454 0 14.3009 -39.8079 -36.4954 -0.289483 8.36268 0.05 
10863 1 -3.52607 -0.176208 7.006 0 0 0 4499.24 -3.60022 -472.865 -2.71321e+07 -2.28747e+06 -1.24058e+06 -6596.72 1249.26 5374.45 0.05 
11894 1 -3.17352 -0.176273 7.00156 0 0 0 96.2842 4.03102 -2.33232 122673 1.50586e+06 -932625 -88.8694 686.837 3980.04 0.05 
7242 1 -1.01376 -0.157909 7.00668 0 0 0 0.575333 0.379948 -184.543 0 2.11843 -39.8079 3269.03 5355.09 3.02773 0.05 
12122 1 -0.561732 -0.185543 6.99932 0 0 0 -3.34199 -161.045 -441.506 3.72674e+06 -2.72071e+08 5.77493e+06 127.406 2282.04 -2591.81 0.05 
13658 1 -0.159217 -0.166527 6.99958 0 0 0 0.111699 -114.117 -209.23 0 2.56393 -39.8079 1183.97 -5999.12 -4746.12 0.05 
12127 1 -2.82774 -0.110263 7.00636 0 0 0 0.149021 -17.5509 -51.8904 -1.45121 0.625374 -39.8079 -1219.28 2152.68 -731.6 0.05 
6839 1 -2.93623 -0.0589252 7.0006 0 0 0 91.1857 -7.34026 -0.645159 2.58164 0.0867177 -39.8079 -34.7173 3569.02 -2026.01 0.05 
9952 1 -1.27517 -0.0727086 7.0053 0 0 0 83.8854 -335.815 -0.280654 -0.0798326 0.1662 -39.8079 779.265 3131.86 -3371.85 0.05 
13065 1 -0.446806 -0.0705068 7.00084 0 0 0 0.0554249 -110.04 -0.227485 0 0.151029 -39.8079 1281.46 -8.67585 4473.38 0.05 
11753 1 -2.68373 -0.00860063 7.00467 0 0 0 155.322 36.9867 -133.046 199900 346801 1.12122e+06 1447.42 1685.01 5394.97 0.05 
13038 1 -2.38373 -0.0454434 7.01027 0 0 0 161.597 206.509 -1.44282 470339 -245213 -672543 -2262.44 5513.53 -8041.89 0.05 
9721 1 -2.21298 -0.0449334 7.00071 0 0 0 122.864 -3.60597 0.173455 -0.521221 0.0378426 -39.8079 90.524 4807.09 -1539.58 0.05 
11177 1 -1.6587 -0.0167658 7.00186 0 0 0 141.639 -19.0663 -42.6624 -2.22914e+07 -1.12134e+06 -5.59697e+08 918.425 6844.44 81.8174 0.05 
10773 1 -0.273205 -0.0419874 7.0012 0 0 0 0.335501 276.649 -136.982 0 0.0307901 -39.8079 1679.57 3050.63 -4799.96 0.05 
9438 1 -3.51934 0.0219036 7.00379 0 0 0 4788.82 3.71519 1.22052 -4.53069e+07 -1.05358e+06 -1.16128e+06 -93.8491 1371.11 -2110.75 0.05 
1157 1 -1.05319 0.0220051 7.00782 0 0 0 115.779 0.284654 -0.332866 0 -0.00437052 -39.8079 -34.9352 4161.11 2477.71 0.05 
2032 1 -0.422477 0.0501303 7.00108 0 0 0 -2.9309 -119.277 -159.056 -1.89488e+07 -1.91871e+08 -7.8526e+08 2360.8 563.264 -59.7741 0.05 
5587 1 -2.27469 0.0582502 7.00862 0 0 0 49.1615 0.161683 -94.3527 -0.608699 -0.083699 -39.8079 -74.9332 5912.01 -1512.14 0.05 
4228 1 -2.03836 0.0883871 7.00417 0 0 0 117.468 29.0895 -8.33119 3.11309e+06 3.89133e+07 8.35631e+06 -518.911 4523.32 -641.149 0.05 
5683 1 -1.90256 0.057401 7.00453 0 0 0 25.6959 -107.698 -0.427354 1.46557e+06 -146678 -1859.62 843.332 944.053 -5222.28 0.05 
11421 1 -3.52141 0.154909 7.0034 0 0 0 4666.59 -116.909 -0.273277 -5.85586e+07 -9.72662e+07 5.2382e+06 3835.2 650.422 3641.65 0.05 
1592 1 -1.43913 0.118572 7.00765 0 0 0 175.767 236.509 -226.107 -0.104924 -0.794273 -39.8079 -3519.82 91.4354 5863.85 0.05 
3720 1 -0.322286 0.11442 7.00093 0 0 0 44.6166 314.006 -3.29364 5.91291e+08 -4.22823e+06 -1.85832e+07 -3261.67 1721.09 1760.95 0.05 
11518 1 -3.24939 0.185852 7.0026 0 0 0 5.21776 -161.134 -230.486 -2.31111e+06 -1.65984e+08 2.0177e+06 -3784.56 -2598.72 4238.83 0.05 
8568 1 -3.02181 0.189087 7.00797 0 0 0 2.31351 -269.253 -1.14057 -595028 -4.5388e+08 5.09547e+06 2055.88 33.6458 2804.55 0.05 
11832 1 -2.59856 0.185832 7.00213 0 0 0 2.49305 -32.2139 -4.55824 1.84908e+06 1.03476e+08 -1.11764e+07 675.15 4.87987 2680.88 0.05 
11037 1 -1.58279 0.169703 7.00196 0 0 0 73.8672 -0.0244451 -118.621 -0.135469 -2.74631 -39.8079 -1007.31 3774.08 1809.56 0.05 
5472 1 -1.06038 0.185041 7.00206 0 0 0 -0.480115 0.438007 -0.479852 0 -3.78629 -39.8079 -36.5086 0.40685 1.12942 0.05 
8636 1 -0.449358 0.158528 7.00616 0 0 0 120.429 -413.387 -0.69654 2.4467e+06 -7.70694e+07 1.87747e+06 4446.44 4363.27 3563.72 0.05 
13760 1 -3.58107 0.254022 7.00092 0 0 0 1491.37 -181.619 -0.830023 5.51729e+07 243373 -780403 5934.96 1707.65 23.8613 0.05 
10467 1 -3.39086 0.224857 7.00623 0 0 0 1.34818 -84.9628 0.559837 33432.4 -8.18878 -39.8079 894.762 -12.6496 -3680.03 0.05 
3741 1 -1.25446 0.22424 7.0102 0 0 0 0.444528 -331.801 -0.221735 -0.0772226 -8.09562 -39.8079 -7.20369 -1.50365 1997.48 0.05 
6836 1 -0.737035 0.275084 7.00357 0 0 0 -1.4646 5.63324 -56.8559 -2.78357e+07 4.70652e+06 -6.50433e+08 102.832 927.569 -19.7144 0.05 
5181 1 -3.31163 0.345322 7.00141 0 0 0 340.177 -308.945 -1.1324 4497.97 -67.4899 -39.8079 3858.65 5791.69 -7304.2 0.05 
5457 1 -2.83002 0.322909 7.0048 0 0 0 219.112 0.624112 -65.9053 -1.42485 -45.8855 -39.8079 -2818.02 6535.62 -4939.71 0.05 
4861 1 -2.72374 0.353424 7.00985 0 0 0 391.246 -163.611 -189.568 -593154 -223904 -828350 4519.99 3041.05 -10371.8 0.05 
9264 1 -2.58767 0.318504 7.01011 0 0 0 195.309 -97.3733 -1.00111 -1.377 -42.5414 -39.8079 2085.51 5294.97 -196.299 0.05 
7879 1 -2.47288 0.352682 7.0101 0 0 0 383.677 63.2495 -1.198 -1.02374 -76.6491 -39.8079 2402.55 5587.35 -4912.58 0.05 
13743 1 -2.1385 0.356315 7.00086 0 0 0 229.769 2.47363 -241.556 2.26096e+08 -817027 -8.18913e+06 5342.1 -2621.93 -5944.77 0.05 
12717 1 -1.96483 0.366289 7.00125 0 0 0 246.192 -113.942 -0.517927 -201588 137702 -221775 2661.9 315.762 -2058.82 0.05 
5648 1 -1.35464 0.329432 7.00356 0 0 0 -0.015931 -36.6734 -0.790457 -95061.5 129735 -18373.6 3938.72 -13.7654 -8079.36 0.05 
13166 1 -1.63218 0.419389 7.00303 0 0 0 70259.3 271.007 -4.46019 -8.13503e+08 7.95479e+06 2.50565e+06 -910.359 -67608.1 -29153.6 0.05 
11062 1 -0.771384 0.402329 7.00205 0 0 0 0.699002 3.07611 -0.887205 0 -183.552 -39.8079 -144.685 -1.31459 215.002 0.05 
12140 1 -0.470411 0.379033 7.00311 0 0 0 0.000543864 -290.737 -142.392 0 -121.371 -39.8079 10358.1 -2577.21 -2300.36 0.05 
4450 1 -3.09572 0.434182 7.00507 0 0 0 323.039 -269.679 -0.667842 7.12651e+06 -9.3998e+07 -918721 2636.5 -78.2346 -1122.65 0.05 
13401 1 -1.49074 0.444901 7.00601 0 0 0 -1.59388 -343.871 -139.869 176861 -1.12631e+08 6.10527e+06 10476.6 428.932 -1973.54 0.05 
13997 1 -1.31737 0.435529 7.0015 0 0 0 0.291073 -246.317 -0.19786 -0.0855024 -336.519 -39.8079 4166.26 15.5116 -8390.29 0.05 
12657 1 -1.2116 0.456979 7.00114 0 0 0 0.149443 -231.993 -0.112388 0 -504.424 -39.8079 996.856 -2.47231 6286.94 0.05 
13330 1 -0.0551544 0.426698 7.00397 0 0 0 1.08627 -321.893 -0.488282 811077 576406 -646145 -285.083 3.9838 3000.05 0.05 
12618 1 -3.57816 0.483396 6.99992 0 0 0 1256.7 -183.036 -328.177 4.79133e+07 1.42468e+06 -869114 4932.62 3144.06 1976.85 0.05 
2817 1 -2.63475 0.481803 7.00438 0 0 0 185.563 -233.514 -1.24104 -1.53611 -818.464 -39.8079 5470.18 -160.668 9756.99 0.05 
10857 1 -2.38436 0.480294 7.00857 0 0 0 208.259 69.1919 -8.50752 -0.809348 -794.325 -39.8079 775.796 -375.938 4610.69 0.05 
1235 1 -2.11787 0.524348 7.00691 0 0 0 290.622 -218.158 -5.49138 1.5646e+07 -1.04917e+09 -3.36064e+07 2408.62 763.847 -6907.22 0.05 
13078 1 -1.40172 0.509529 7.00169 0 0 0 -1.33678 32.9326 -263.241 -0.0984203 -1438.25 -39.8079 638.305 4515.73 2594.61 0.05 
12409 1 -0.163606 0.481135 7.00725 0 0 0 0.00492049 -89.4911 -0.0196719 0 -807.684 -39.8079 -239.633 0.847826 -3950.1 0.05 
10883 1 -3.17125 0.531837 7.00857 0 0 0 7.02617 -260.353 -4.58337 5.52668e+06 -1.03479e+08 -929291 1695.85 90.2188 -2507.9 0.05 
3048 1 -3.04697 0.569037 7.00355 0 0 0 2.25763 -312.296 -0.304432 28.4051 -5343.3 -39.8079 3755.63 52.6541 108.242 0.05 
7042 1 -1.69206 0.548373 6.9833 0 0 0 226.359 -12661.7 -100165 -1.04326e+07 1.325e+08 1.18653e+09 -33039.1 -7050.49 3919.95 0.05 
3352 1 -1.51552 0.551914 7.00701 0 0 0 -1.53125 -238.289 -102.196 -0.119954 -3603.68 -39.8079 3792.27 -4411.26 -4471.29 0.05 
13715 1 -1.90688 0.59937 7.00393 0 0 0 -3.3911 -85.4643 -73.489 -43053 -237382 -138879 3296.75 -2212.27 -3603.77 0.05 
13544 1 -1.42288 0.60853 7.00678 0 0 0 22.4435 -40.1507 -76.2094 -0.102035 -14069.5 -39.8079 7603.07 2764.96 5394.66 0.05 
13720 1 -3.03382 0.675543 7.00918 0 0 0 319.89 -342.239 -0.632609 22.4012 -92543.4 -39.8079 2873.36 6100.38 -4091 0.05 
10007 1 -2.65234 0.637435 7.00393 0 0 0 419.021 -315.994 -101.149 -1.59395 -30398.6 -39.8079 5976.28 951.447 -8262.05 0.05 
11300 1 -2.10253 0.640205 7.00816 0 0 0 292.862 -443.755 -2.36552 -1.87869e+07 -8.18856e+08 1.22072e+07 5207.45 4563.46 -442.386 0.05 
8166 1 -1.99861 0.637628 7.00049 0 0 0 135.305 -217.899 -0.263471 -206321 633721 365655 5027.29 3990.64 326.67 0.05 
13670 1 -1.25999 0.664998 7.00023 0 0 0 0.224886 -333.324 -0.406574 -0.0779096 -67168.8 -39.8079 1502.69 -0.408066 1134.51 0.05 
5082 1 -0.782967 0.64797 7.00553 0 0 0 0.61486 2.21159 -0.772618 0 -40861.9 -39.8079 -168.794 4.53434 330.62 0.05 
12413 1 -0.277155 0.636654 7.00217 0 0 0 1.64501 -163.47 -271.601 392940 -4.70157e+07 -4.9729e+08 938.056 5746.46 60.5913 0.05 
1098 1 -0.077693 0.64768 7.00135 0 0 0 -0.280266 -342.442 -0.0682972 0 -40525.2 -39.8079 97.9772 0.0352206 -447.284 0.05 
11065 1 -0.676984 0.687254 7.00071 0 0 0 0.225918 -2.12799 -309.007 19211.3 -1.19802e+06 -125288 -3982.4 9.39478 -3.50845 0.05 
13682 1 -3.49768 0.777985 6.99777 0 0 0 226.464 -180.246 -368.706 8.94403e+06 -3.63693e+07 -3.10983e+06 -1424.02 8126.81 -1865.25 0.05 
13918 1 -3.39494 0.767593 7.00229 0 0 0 334.52 -136.769 -97.7847 -38189.9 -1.30941e+07 -903113 4870.27 5029.87 -7760.31 0.05 
8765 1 -2.645 0.740955 7.00021 0 0 0 458.574 -291.442 0.209079 -1.57006 -881241 -39.8079 6231.04 8990.58 8896.36 0.05 
5525 1 -1.71725 0.758845 7.00174 0 0 0 262.581 -111.935 -326.391 -1.50879e+06 -3.0792e+07 -1.60341e+06 1835.09 10876.3 472.365 0.05 
13280 1 -1.58183 0.751889 7.0024 0 0 0 269.811 -42.3946 -2.26058 469267 -1.44721e+07 -1.23951e+06 344.583 8142.92 427.223 0.05 
1151 1 -1.13884 0.740739 7.0056 0 0 0 36.9387 -39.6814 -202.47 4.25797e+08 -1.6647e+07 -1.50923e+07 6374.47 3041.07 -2240.93 0.05 
3407 1 -0.603129 0.757224 7.01026 0 0 0 -0.319929 -266.055 -108.415 -309096 -9.711e+06 -279730 7093.03 -3970.64 -4259.53 0.05 
12807 1 -0.281136 0.746756 7.00111 0 0 0 1.0596 -330.687 -5.94252 -497632 -4.25604e+07 -607243 3116.21 -25.5724 1559.13 0.05 
7302 1 -3.50989 0.795361 7.00589 0 0 0 408.721 -3585.36 -299.535 6.11243e+06 5.10498e+07 147477 1702.52 4805.36 -239.562 0.05 
12715 1 -3.09062 0.791847 7.0052 0 0 0 530.884 -603.169 -11.0095 -1.54694e+07 -1.3188e+07 -4.60157e+08 4934.1 7292.63 2348.51 0.05 
12133 1 -2.35287 0.798672 7.00891 0 0 0 160.066 -3522.21 1.66469 -613137 2.78483e+07 217065 -1795.98 4344.3 3572.48 0.05 
12721 1 -0.945828 0.814121 7.00717 0 0 0 -0.509747 -2724.5 -194.85 -340752 -9.42035e+06 1.56769e+06 4854.32 6473.28 -867.009 0.05 
12971 1 -0.488414 0.818778 7.00631 0 0 0 0.379652 -866.738 -376.856 -132450 -2.99525e+07 -577497 5300.06 -1727.84 -646.402 0.05 
8282 1 -0.132561 0.799287 7.00935 0 0 0 0.0259048 -517.564 -0.159556 0 -1.13073e+07 -39.8079 5218.66 8.24512 -5141.88 0.05 
12129 1 -2.97031 -0.943618 7.01217 0 0 0 362.819 75394.4 -2.73573 6.335 3.69616e+12 -39.8079 230.614 2580.78 -7093.32 0.05 
10704 1 -1.04129 -0.937304 7.01942 0 0 0 3.31294 113308 0.466973 0 1.27882e+12 -39.8079 -837.277 23.4623 513.552 0.05 
10884 1 -1.81841 -0.883467 7.01915 0 0 0 3.71294 67060.3 -173.998 -0.213845 2.5984e+09 -39.8079 -21245.7 -1931.49 -7614.47 0.05 
196 1 -3.09803 -0.826353 7.01094 0 0 0 -0.0451388 1944.99 -15.5117 -867934 4.96452e+07 -4.56537e+08 -5824.21 47.4318 1989.49 0.05 
5328 1 -2.5044 -0.810686 7.04112 0 0 0 24.3867 535.562 -132.569 -1.11277 2.02916e+07 -39.8079 -6425.42 5100.7 6678.67 0.05 
2998 1 -2.28315 -0.802996 7.03367 0 0 0 7.19394 3298.22 -220.428 2.62983e+06 -1.75291e+07 -500242 -6361.28 -883.508 1286.4 0.05 
8924 1 -2.1772 -0.826573 7.04028 0 0 0 1.44336 1059.05 0.376082 696195 4.6391e+07 367167 91.5167 -21.7607 5853.96 0.05 
3847 1 -1.89517 -0.799652 7.02147 0 0 0 -0.690279 453.895 -360.141 2.93684e+06 4.54731e+07 -6.25886e+08 -3856.26 1315.67 -2087.07 0.05 
11919 1 -1.71559 -0.829791 7.03997 0 0 0 145.387 976.792 -1.36253 2.04874e+06 5.37832e+07 -1.29759e+06 4215.4 4571.83 6727.66 0.05 
7511 1 -1.5953 -0.817082 7.05581 0 0 0 38.6289 794.52 -0.212246 -0.138624 2.86137e+07 -39.8079 1099.78 831.522 -1462.11 0.05 
7214 1 -1.37414 -0.820557 7.04019 0 0 0 52.8846 791.936 0.118401 -0.0939448 3.46646e+07 -39.8079 1205.58 1709.53 -4107.52 0.05 
2483 1 -1.23788 -0.797871 7.02271 0 0 0 -0.165379 429.214 -275.227 0 1.05395e+07 -39.8079 -6317.93 -15.7066 930.122 0.05 
4837 1 -3.57118 -0.776747 7.04041 0 0 0 2168.4 244.899 10.7733 9.59388e+06 3.22538e+07 3.32594e+06 -2967.6 7246.78 4982.75 0.05 
3315 1 -3.52019 -0.775982 7.04714 0 0 0 393.519 4423.67 3.8914 5.4124e+07 -7.54006e+07 -1.0952e+06 -1243.67 -95.6254 182.956 0.05 
13799 1 -3.51 -0.787934 7.01331 0 0 0 297.805 330.027 -21.2729 5.43738e+07 5.33212e+07 -1.3747e+06 -4483.6 4645.12 1621.08 0.05 