ITEM: TIMESTEP
440000
ITEM: NUMBER OF ATOMS
14052
ITEM: BOX BOUNDS ff pp ff
-3.75 3.75
-1 1
0 10
ITEM: ATOMS id type x y z ix iy iz vx vy vz fx fy fz omegax omegay omegaz radius 
9412 1 -2.15411 -0.351429 2.30238 0 0 0 1.89464 14.6515 -171840 -0.451298 75.0041 -39.9144 -9278.38 13846.1 5701.27 0.05 
13821 1 -1.59504 -0.509121 2.31065 0 0 0 0.275183 105.583 -171857 -0.138557 1426.09 -39.9129 4511.3 3783.37 -2558.63 0.05 
10206 1 -3.22147 0.646842 2.36728 0 0 0 223.628 -338.552 -170107 667.055 -39571.8 -39.9032 5136.14 -10974 -8981.36 0.05 
12795 1 -2.97851 -0.319947 2.43674 0 0 0 496.068 -76.1833 -168732 7.59692 43.609 -39.8928 -10403.9 3184.62 3882.04 0.05 
13215 1 -0.227494 -0.0943077 2.41922 0 0 0 -0.415757 615.338 -169069 0 0.377398 -39.8953 56.5582 22216.6 -6775.57 0.05 
4371 1 -1.71271 0.395737 2.5034 0 0 0 0.978136 -152.086 -167037 -0.173172 -163.138 -39.8079 17513.9 -2599.57 17.1685 0.05 
7183 1 -0.750539 -0.356604 2.52786 0 0 0 -0.775491 310.249 -166448 0 82.0406 -39.8079 -12783.2 -9045.73 -4366.71 0.05 
11397 1 -0.43041 0.755155 2.51718 0 0 0 0.381765 48.7047 -166689 0 -1.54891e+06 -39.8079 9019.46 16450.5 -5556.43 0.05 
12202 1 -1.69594 -0.491988 2.62405 0 0 0 179.822 82.5046 -164076 -0.16763 1003.74 -39.8079 9591.61 11592.2 3632.57 0.05 
10576 1 -3.26544 0.232803 2.61752 0 0 0 288.587 -171.665 -164748 1626.98 -9.47809 -39.8079 -34639.3 13625.1 1203.32 0.05 
13017 1 -1.48728 -0.78548 2.67014 0 0 0 0.909248 602.567 -163153 -0.114105 5.81289e+06 -39.8079 -24189.3 -7438.98 3021.17 0.05 
8448 1 -0.483469 -0.793996 2.80787 0 0 0 0.508839 379.198 -159922 0 8.7167e+06 -39.8079 -5624.8 -12451.1 599.922 0.05 
11202 1 -0.848186 0.254409 2.84273 0 0 0 123.447 238.648 -159224 0 -13.983 -39.8079 -9912.06 27218.7 2176.75 0.05 
13635 1 -1.11896 0.672363 2.82282 0 0 0 1.12983 -249.191 -159669 0 -83928.7 -39.8079 23219.4 1106.72 3265.97 0.05 
11049 1 -2.64692 -0.218564 2.91179 0 0 0 133.741 -5.57847 -157302 -1.57635 7.28244 -39.8079 18.8217 -15907.8 3665.63 0.05 
9405 1 -1.4917 0.139857 2.91841 0 0 0 152.194 300.962 -157447 -0.114996 -1.38577 -39.8079 -12606.9 -4243.76 -2423.02 0.05 
12319 1 -0.0529365 0.162247 2.91083 0 0 0 -0.207636 85.6351 -158386 0 -2.33401 -39.8079 -4133.99 98548.8 -3973.59 0.05 
12761 1 -0.541561 0.52576 2.96938 0 0 0 0.273628 -327.098 -156298 0 -2026.66 -39.8079 16792.2 -12762.6 -880.602 0.05 
13254 1 -1.96443 0.529648 2.98817 0 0 0 -0.150738 27.6347 -155765 -0.291486 -2203.6 -39.8079 -7367.64 -23625.4 3565.41 0.05 
11924 1 -1.4842 0.756337 2.98357 0 0 0 -0.0764036 -132475 -156147 -0.113487 -1.62577e+06 -39.8079 -6970.43 -4104.63 9276.99 0.05 
11242 1 -1.16453 0.575855 3.02914 0 0 0 -0.0422323 -200.736 -155175 0 -6276.34 -39.8079 11388 -13157.8 4496.39 0.05 
12566 1 -1.89754 0.268489 3.10619 0 0 0 77.5525 -317.074 -153211 -0.252234 -17.9214 -39.8079 -16700 2013.15 5382.68 0.05 
12900 1 -3.48376 0.793802 3.12553 0 0 0 312.948 -558.132 -151839 670048 -8.63479e+06 -39.8079 -23920.6 40304.7 -3110.64 0.05 
8681 1 -0.510998 0.810762 3.07941 0 0 0 -0.925695 -852.496 -153783 0 -2.03725e+07 -39.8079 -50699.1 11980.1 1235.89 0.05 
12455 1 -2.35561 -0.305881 3.29752 0 0 0 1.67213 168.304 -148866 -0.750379 34.2459 -39.8079 7925.15 12355.5 -4376.61 0.05 
4032 1 -1.64333 0.248695 3.29253 0 0 0 0.993795 310.862 -148998 -0.151614 -12.6299 -39.8079 9126.22 20299.1 3259.07 0.05 
7677 1 -1.36622 0.53484 3.29711 0 0 0 -0.253297 -136.769 -149126 -0.0927067 -2466.68 -39.8079 -7104.88 7447.28 662.835 0.05 
11415 1 -0.873893 0.810187 3.32241 0 0 0 238.893 -1010.08 -148344 0 -1.97641e+07 -39.8079 -96357.5 -10605.3 1405.99 0.05 
8255 1 -3.29065 -0.427672 3.38354 0 0 0 175.985 68.4663 -146740 2801.83 290.952 -39.8079 -29492.7 -11449 4606.84 0.05 
10609 1 -1.77683 -0.323613 3.35285 0 0 0 1.51252 -165.219 -147349 -0.196566 46.4443 -39.8079 27672.1 -1753.56 3676.46 0.05 
13781 1 -2.52431 -0.00096707 3.49315 0 0 0 31.3856 1.24119 -144580 -1.17242 3.69011e-07 -39.8079 5489.15 -18032.1 -657.816 0.05 
12363 1 -3.14589 -0.41126 3.58435 0 0 0 355.596 239.597 -142172 162.83 215.601 -39.8079 8225.56 -3555.31 5490.18 0.05 
7639 1 -0.954681 -0.190508 3.59031 0 0 0 -1.0914 165.7 -141912 0 4.22939 -39.8079 15457.6 21674 1082.4 0.05 
6492 1 -1.69629 0.755196 3.54657 0 0 0 110.525 -203.557 -142339 -0.167744 -1.55156e+06 -39.8079 16696.9 -12891.1 2389.16 0.05 
9165 1 -2.43569 -0.768484 3.62015 0 0 0 69.1415 67.8124 -141097 -0.927362 2.71151e+06 -39.8079 -44682.4 13410.2 -3042.24 0.05 
6487 1 -3.35223 -0.321993 3.61189 0 0 0 396.865 223.839 -141599 11982.2 45.1695 -39.8079 12836.7 -22377.9 -7704.65 0.05 
13278 1 -2.04183 0.795066 3.66284 0 0 0 147.39 -1216.24 -140221 -0.346694 -9.18271e+06 -39.8079 -69159.6 7820.31 8625.9 0.05 
11852 1 -2.18213 -0.534501 3.71963 0 0 0 209.781 264.793 -138928 -0.48309 2448.5 -39.8079 11897.3 19456.2 984.161 0.05 
10766 1 -2.77221 0.014366 3.71244 0 0 0 274.323 -645.343 -139270 -1.77982 -0.00121242 -39.8079 -41199.7 -4787.51 941.861 0.05 
12207 1 -0.638599 0.153165 3.73075 0 0 0 -0.261889 -17318 -139063 0 -1.90138 -39.8079 -20262.1 -18969.9 601.985 0.05 
3777 1 -2.73331 -0.725489 3.77069 0 0 0 477.102 46658 -137498 -1.79086 493303 -39.8079 2511.96 -4716.12 -2155.11 0.05 
11713 1 -2.15063 -0.262169 3.78172 0 0 0 187.819 -811.193 -137639 -0.447532 16.039 -39.8079 12852.1 -8865.71 6541.5 0.05 
9454 1 -2.46684 -0.119381 3.78293 0 0 0 23.8613 148.175 -137789 -1.00744 0.812365 -39.8079 8704.99 5585.32 2765.96 0.05 
3037 1 -0.655302 0.0306389 3.88286 0 0 0 51.9572 -3.79083 -135437 0 -0.0118562 -39.8079 -3964.81 -4136.05 3439.81 0.05 
9289 1 -0.142834 0.316926 3.91581 0 0 0 1.1644 -131.287 -134108 0 -41.404 -39.8079 -3624.17 -6460.88 4435.75 0.05 
10622 1 -2.52939 -0.51548 3.97606 0 0 0 149.526 3.09795 -132670 -1.18802 1629.03 -39.8079 -19546.9 30099.5 -1973.68 0.05 
9291 1 -0.582901 -0.164765 4.01224 0 0 0 0.867404 -55.9492 -132285 0 2.46714 -39.8079 9808.39 -21308.2 -682.456 0.05 
1298 1 -2.31886 -0.55054 4.08999 0 0 0 79.3297 274.931 -130642 -0.681855 3493.74 -39.8079 5833.24 8835.42 -5717.94 0.05 
6601 1 -3.06432 -0.238514 4.08999 0 0 0 222.059 156.804 -130485 38.6667 10.5162 -39.8079 1511.83 7088.19 3380.35 0.05 
8417 1 -2.52951 0.157602 4.10727 0 0 0 9.37303 66461.2 -129879 -1.18842 -2.1038 -39.8079 7807.19 -6700.52 1209.71 0.05 
11208 1 -0.922929 0.313887 4.23451 0 0 0 -0.489781 -313.998 -127289 0 -39.298 -39.8079 -18203.6 16205.6 -2992.52 0.05 
10028 1 -3.44144 0.692127 4.23027 0 0 0 387.154 -272.003 -126502 153058 -156510 -39.8079 44558.4 21410.1 2807.04 0.05 
11214 1 -1.90676 0.799544 4.28468 0 0 0 194.512 -996.005 -125393 -0.257243 -1.14533e+07 -39.8079 -70915.1 587.244 -4847.1 0.05 
2112 1 -1.37309 -0.397553 4.35317 0 0 0 111.049 -54.544 -124158 -0.0937785 168.514 -39.8079 1233.91 1872.77 1305.06 0.05 
206 1 -2.29003 -0.759899 4.41011 0 0 0 83.4541 72.1073 -122356 -0.633036 1.88376e+06 -39.8079 -18401.5 -18084.4 1061.65 0.05 
13478 1 -2.78519 0.407315 4.4597 0 0 0 449.637 -45.6364 -121456 -1.74526 -200.772 -39.8079 -10129.5 -26863.5 2476.92 0.05 
4730 1 -2.34554 0.569033 4.47108 0 0 0 334.723 -235.075 -121644 -0.730872 -5342.8 -39.8079 20948.1 -7961.38 -4366.16 0.05 
8660 1 -2.89184 -0.776198 4.51999 0 0 0 534.999 455.244 -119849 0.00810254 3.80538e+06 -39.8079 14477.5 -14760.4 -8301.81 0.05 
9911 1 -2.30327 -0.193221 4.49512 0 0 0 90.3066 -152.24 -121287 -0.65493 4.46525 -39.8079 -9458.35 6156.14 792.257 0.05 
12559 1 -2.21377 -0.771744 4.53227 0 0 0 32464 51.1513 -119774 -0.522249 3.12465e+06 -39.8079 -43723.8 -25383.5 -13862.8 0.05 
4350 1 -1.93862 -0.587513 4.61985 0 0 0 93.4383 630.497 -117650 -0.275509 8312.3 -39.8079 -12400.1 -42919.9 4136.68 0.05 
13047 1 -1.47138 -0.503355 4.58608 0 0 0 2.72496 121.492 -118930 -0.110965 1265.65 -39.8079 -5261.26 -2525.86 1985.84 0.05 
7680 1 -0.230754 0.660179 4.61865 0 0 0 -0.0890154 3.26647 -117826 0 -58211.5 -39.8079 -7670.81 -7350.76 -6526.56 0.05 
3659 1 -1.15938 -0.605695 4.63773 0 0 0 5.16334 430.767 -117801 0 13085.1 -39.8079 2733.13 11103 -565.496 0.05 
9947 1 -0.484485 -0.211422 4.6297 0 0 0 0.987894 -342.507 -117774 0 6.3631 -39.8079 -10103.5 12433.8 10082.9 0.05 
12040 1 -3.18699 0.0899465 4.75567 0 0 0 471.714 -356.738 -114849 345.113 -0.32453 -39.8079 15089.1 17082 -86.3417 0.05 
11268 1 -1.9323 -0.198771 4.79014 0 0 0 1.76208 -81.2142 -114222 -0.271762 4.9831 -39.8079 29864.8 -3618.73 -685.673 0.05 
7591 1 -0.677 0.715895 4.82182 0 0 0 -0.00815119 67.3471 -113236 0 -349803 -39.8079 14341 -7770.88 7549.9 0.05 
12192 1 -0.206416 0.178742 4.87526 0 0 0 2.37786 -93.6073 -112466 0 -3.32517 -39.8079 19408.4 -524.192 3250.39 0.05 
13500 1 -0.507359 -0.630696 4.91828 0 0 0 1.06112 -118915 -111014 0 25268.5 -39.8079 38161.3 9002.19 3337.92 0.05 
8359 1 -2.18502 0.0524561 4.98671 0 0 0 77.7597 -401.521 -109586 -0.486521 -0.0606953 -39.8079 -5819.2 -7486.86 -11905.4 0.05 
9169 1 -1.88513 0.428511 5.0051 0 0 0 34.9853 72468.5 -109754 -0.245682 -295.485 -39.8079 18361.9 -32131.1 19347.1 0.05 
10939 1 -2.73759 0.641616 4.99966 0 0 0 188.799 39.7833 -108479 -1.79483 -34150.5 -39.8079 3906.56 21481.6 603.853 0.05 
8437 1 -3.41207 0.789288 5.03879 0 0 0 585.244 38136.2 -108235 61564.3 -6.95329e+06 -39.8079 19327.7 -34445.8 -4832.02 0.05 
13249 1 -1.23414 -0.747028 5.04267 0 0 0 199.43 546.407 -107671 0 1.1173e+06 -39.8079 -27288.1 23601.4 -625.568 0.05 
13159 1 -3.54843 0.482869 5.05309 0 0 0 926.662 -477.742 -107355 1.08368e+07 -835.997 -39.8079 -17199.1 -37408.3 -2407.07 0.05 
12032 1 -2.8749 -0.335051 5.16921 0 0 0 290.307 -84.2953 -104733 -0.559417 56.5391 -39.8079 4790.94 -28224.8 3147.42 0.05 
13964 1 -0.207493 -0.244832 5.18048 0 0 0 -1.73267 -435.101 -104936 0 11.7856 -39.8079 -4294.31 -12211.4 -775.338 0.05 
6590 1 -3.55241 -0.13046 5.17334 0 0 0 757.912 131.805 -105312 1.323e+07 1.09334 -39.8079 6267.37 -36918.6 8012.27 0.05 
9303 1 -0.349086 -0.118881 5.17568 0 0 0 0.589332 122.437 -105137 0 0.801146 -39.8079 -13928.1 -5148.38 933.195 0.05 
1859 1 -2.69878 0.258154 5.188 0 0 0 110.629 -566.061 -104579 -1.72848 -14.9419 -39.8079 -5784.6 4348.33 5790.38 0.05 
12315 1 -3.41767 0.443235 5.1668 0 0 0 198.673 122.553 -105651 72772.6 -388.677 -39.8079 29274.3 -39488.5 7802.64 0.05 
6890 1 -2.16637 0.314988 5.23997 0 0 0 130.388 247.473 -103525 -0.464887 -40.0479 -39.8079 2141.05 14005.6 -3014.62 0.05 
4674 1 -1.59852 0.566456 5.22469 0 0 0 169.282 83.825 -103803 -0.139449 -5030.57 -39.8079 24967.3 -9431.76 9902.63 0.05 
13236 1 -3.1361 -0.264683 5.26645 0 0 0 271.394 -26401 -102743 136.724 16.764 -39.8079 1781.1 -1637.86 4576.29 0.05 
271 1 -3.4712 -0.158444 5.26438 0 0 0 267.533 194.947 -103281 422474 2.14409 -39.8079 -6456.94 40297.8 -4579.49 0.05 
11483 1 -1.88835 -0.688629 5.33454 0 0 0 4.93022 4887.76 -101314 -0.247364 139769 -39.8079 65648.3 -5559.14 -2364.46 0.05 
7042 1 -1.68848 0.345897 5.38187 0 0 0 223.827 -12654.7 -100089 -0.165235 -68.1628 -39.8079 -34206.3 -5516.62 3736.18 0.05 
13162 1 -0.41284 0.0449389 5.434 0 0 0 109.41 261.21 -98328.8 0 -0.0378567 -39.8079 336.558 -9142.93 2716.89 0.05 
3372 1 -1.59221 -0.0165522 5.47174 0 0 0 4.82462 104.867 -98057.9 -0.137836 0.0018558 -39.8079 -23909.3 -10681.9 -2635.59 0.05 
8516 1 -0.701529 0.265575 5.49264 0 0 0 1.42313 -60.5683 -97581.6 0 -17.0289 -39.8079 2073.26 9071.94 8287.91 0.05 
3963 1 -0.262157 0.569563 5.48653 0 0 0 2.44269 221.943 -97608.4 0 -5409.56 -39.8079 -5048.29 -19173.1 -6525.2 0.05 
10960 1 -1.21219 0.759771 5.48904 0 0 0 595.398 -3070.36 -97761.7 0 -1.87382e+06 -39.8079 -90095.7 -10669.7 9763.8 0.05 
10345 1 -3.09054 -0.674069 5.5278 0 0 0 128.2 5019.82 -96029.9 61.2851 88435.2 -39.8079 52479.7 4063.3 -1435.06 0.05 
4198 1 -1.4847 -0.0446696 5.55231 0 0 0 89.7897 67.2626 -96374.1 -0.113587 0.0371704 -39.8079 -21743.3 -3519.48 1061.91 0.05 
11890 1 -2.83858 0.137808 5.55276 0 0 0 451.004 -143.809 -96205.9 -1.31367 -1.31733 -39.8079 22358.7 -25560.3 3189.61 0.05 
13612 1 -1.51784 -0.181111 5.57063 0 0 0 62.0346 -322.345 -95748.3 -0.120451 3.4927 -39.8079 -15597.4 371.408 3250.97 0.05 
13505 1 -0.162355 0.330092 5.56704 0 0 0 153.17 69735 -96226 0 -51.9157 -39.8079 23766.4 5473.26 -5383.39 0.05 
10867 1 -3.06662 0.789002 5.5691 0 0 0 400.747 -501.634 -95278.5 40.2671 -6.85974e+06 -39.8079 -14545.6 26999.2 991.261 0.05 
13274 1 -1.34166 -0.794538 5.62263 0 0 0 153.741 222.061 -94381.9 -0.0889933 8.94906e+06 -39.8079 2351.61 -12550.2 -462.172 0.05 
9422 1 -1.45271 0.43077 5.64852 0 0 0 145.633 -279.523 -93780.3 -0.107418 -308.082 -39.8079 5125.03 2882.75 6268.6 0.05 
12344 1 -0.104801 -0.232779 5.6835 0 0 0 -0.974427 -381.27 -92491.4 0 9.47393 -39.8079 -1449.49 -3011.39 12858.7 0.05 
12661 1 -3.53223 0.281715 5.67492 0 0 0 626.579 -45.1974 -93168.8 5.00046e+06 -22.5666 -39.8079 15991.1 -5875.18 -3027.09 0.05 
4108 1 -0.716667 -0.611142 5.73444 0 0 0 8.49039 343.156 -91544.4 0 15049.3 -39.8079 23231 11283.8 -603.078 0.05 
11228 1 -0.851499 0.671555 5.74587 0 0 0 212.248 -292.35 -91138.1 0 -81883.1 -39.8079 26710.5 22515 882.167 0.05 
10394 1 -1.9756 -0.796867 5.81354 0 0 0 455.702 921.905 -89839.8 -0.298751 1.003e+07 -39.8079 48274.2 4032.71 470.026 0.05 
10294 1 -1.68147 -0.715426 5.79319 0 0 0 8.9747 -84.8413 -90196.4 -0.163025 344074 -39.8079 15261.7 -5016.74 -2015.43 0.05 
7105 1 -1.48355 -0.378094 5.77811 0 0 0 154.374 -258.265 -90828.2 -0.113359 119.382 -39.8079 15953.6 -388.134 9770.12 0.05 
3780 1 -0.872418 -0.0793377 5.8074 0 0 0 214.749 -236.551 -90065.6 0 0.218342 -39.8079 10985.2 15940 -3369.77 0.05 
6232 1 -3.379 -0.584655 5.8369 0 0 0 598.064 593.158 -89029.1 24131.2 7753.65 -39.8079 -27584.8 35113.1 -8282.62 0.05 
11247 1 -2.36855 -0.0816906 5.8413 0 0 0 281.584 -280.537 -89138.6 -0.776325 0.239347 -39.8079 20176.5 16917.6 2779.55 0.05 
8380 1 -0.564889 -0.679721 5.89554 0 0 0 156.055 462.127 -88010.4 0 105372 -39.8079 -75.1218 -1963.71 6907.18 0.05 
11812 1 -2.0186 -0.409785 5.94547 0 0 0 8.26129 65.9615 -86739.4 -0.328875 209.926 -39.8079 -10600.1 -24162.6 9882.96 0.05 
1210 1 -0.287024 0.253748 5.96164 0 0 0 0.254153 226.035 -86541 0 -13.8197 -39.8079 28407.2 -2975.74 -16011.4 0.05 
11567 1 -2.34532 0.658308 5.97063 0 0 0 176.814 -583.401 -85965.3 -0.730446 -55093.8 -39.8079 1786.99 -21168.7 -7103.01 0.05 
13755 1 -0.903029 -0.274985 5.99271 0 0 0 3.04535 472.909 -85593.1 0 20.0748 -39.8079 -25575.7 30462.9 -6314.97 0.05 
9416 1 -3.55116 0.0583394 6.01193 0 0 0 887.551 -10.5578 -85264.2 1.24167e+07 -0.0840936 -39.8079 -16972.8 -56184.6 4454.39 0.05 
4329 1 -2.28132 0.241609 6.00352 0 0 0 436.396 -111.317 -84885.3 -0.619083 -11.1213 -39.8079 -2387.67 -15375.5 689.759 0.05 
11916 1 -1.86223 0.437423 5.99321 0 0 0 70.8084 -59.1591 -85731.7 -0.234137 -348.61 -39.8079 21488.1 5883.66 -749.099 0.05 
13012 1 -1.05036 -0.636111 6.03695 0 0 0 394.42 185.059 -84787.3 0 29307.1 -39.8079 21567.3 -6382.23 -849.642 0.05 
13282 1 -3.21544 0.436643 6.02517 0 0 0 370.898 -563.587 -84482.6 593.029 -343.573 -39.8079 20389 -43565.5 -11889.1 0.05 
11564 1 -3.51338 0.742292 6.09583 0 0 0 322.769 -85562.4 -82607.4 2.18056e+06 -928089 -39.8079 261.991 23243.1 7058.2 0.05 
13957 1 -0.59862 -0.80142 6.16759 0 0 0 -0.438965 671.29 -81583.4 0 1.25826e+07 -39.8079 59375.1 20431 -1552.29 0.05 
9961 1 -3.53775 -0.44989 6.1743 0 0 0 491.587 185.325 -80410.8 6.46574e+06 440.697 -39.8079 31142.8 -24806.9 -9770.97 0.05 
12325 1 -2.50977 -0.289124 6.15739 0 0 0 567.319 149.826 -81643.2 -1.12863 25.6559 -39.8079 3195.34 13151 3670.74 0.05 
12952 1 -2.76121 -0.214092 6.15411 0 0 0 194.592 498.246 -81769.9 -1.79518 6.69389 -39.8079 -5596.16 13792.8 -4217.11 0.05 
8433 1 -1.98805 -0.116908 6.12713 0 0 0 90.5099 -85.5952 -82741.8 -0.307116 0.757982 -39.8079 -27629.9 -1613.83 63.4766 0.05 
3281 1 -1.80459 -0.498197 6.18185 0 0 0 79.8529 308.96 -80747.1 -0.207905 1138.62 -39.8079 26017.5 -1559.52 -5358.65 0.05 
7835 1 -1.02162 -0.107766 6.23258 0 0 0 265.872 325.825 -79933.1 0 0.580324 -39.8079 -18124.5 -28720.3 5095.93 0.05 
13010 1 -2.88944 0.4858 6.26666 0 0 0 451.052 282.257 -78615.9 -0.0829028 -886.341 -39.8079 11212.3 -23202.4 2727.87 0.05 
11203 1 -0.298157 0.769831 6.25924 0 0 0 59.4273 38.0548 -78279 0 -2.87444e+06 -39.8079 -16840.2 -19091.4 7106.99 0.05 
6997 1 -1.25693 -0.792451 6.31529 0 0 0 7.76568 2027.83 -77910.7 -0.0775279 8.0888e+06 -39.8079 104188 -3819 10772.9 0.05 
5927 1 -0.693437 -0.708445 6.29121 0 0 0 0.751385 4255.65 -78576.9 0 269964 -39.8079 45653.4 -463.853 2434.88 0.05 
12277 1 -2.52993 -0.699952 6.34073 0 0 0 325.726 565.444 -76782.4 -1.18969 202526 -39.8079 5654.59 -17783.4 -7973.42 0.05 
3539 1 -0.254708 -0.675442 6.3705 0 0 0 229.158 250.942 -76730.4 0 92253.9 -39.8079 -28886.6 8081.73 7369.33 0.05 
7469 1 -0.105029 -0.651564 6.37279 0 0 0 4.7581 46.7778 -76297.7 0 45290.1 -39.8079 -2407.67 -5808.57 -2764.24 0.05 
10018 1 -2.74377 -0.122192 6.33684 0 0 0 265.188 264.743 -77504.8 -1.79865 0.877719 -39.8079 -8288.21 -4563.39 -8281.17 0.05 
11344 1 -0.26716 -0.565394 6.42291 0 0 0 5.43804 -4.48993 -75193.8 0 4907.81 -39.8079 23001.7 -936.71 4012.35 0.05 
6901 1 -0.0537481 0.0372339 6.41251 0 0 0 0.461508 -3.09134 -76635.4 0 -0.0213834 -39.8079 -22917.7 104160 1454.02 0.05 
11555 1 -0.791422 -0.551619 6.44156 0 0 0 363.825 -220.844 -74082.9 0 3579.79 -39.8079 -11791.8 -17522.3 961.235 0.05 
2425 1 -2.46191 0.237687 6.47924 0 0 0 66.0808 471.966 -74051.8 -0.99434 -10.3596 -39.8079 5905.47 -5917.71 7310.86 0.05 
13458 1 -3.34173 -0.109997 6.50079 0 0 0 181.803 -41.682 -73559 9218.23 0.620455 -39.8079 18407.7 -12866.5 -4957.3 0.05 
8541 1 -1.63811 0.247265 6.51783 0 0 0 6.86351 25451 -73294.3 -0.150133 -12.311 -39.8079 13423.6 -24549.3 -4350.63 0.05 
12466 1 -2.08236 0.395663 6.51045 0 0 0 300.262 151558 -73491 -0.380679 -162.923 -39.8079 5353.66 -9415.89 6519.21 0.05 
2973 1 -1.87728 -0.317016 6.60975 0 0 0 120.55 77.8664 -70439.4 -0.241646 41.4679 -39.8079 -6675.36 -4118.29 2660.5 0.05 
8206 1 -1.54226 -0.602014 6.64767 0 0 0 162.591 278.148 -70272.8 -0.125843 11917.4 -39.8079 -8246.42 12291.5 -8980.09 0.05 
8830 1 -2.19694 -0.0723546 6.66532 0 0 0 291.125 598.303 -69213.9 -0.500972 0.163692 -39.8079 2280.84 -4759.88 -557.186 0.05 
8867 1 -3.36965 -0.00908636 6.66756 0 0 0 175.667 -142.955 -68445.3 18796.6 0.000306353 -39.8079 -12620.4 676.409 961.516 0.05 
3838 1 -2.30179 -0.658382 6.71415 0 0 0 342.245 -53.3524 -67827.3 -0.652453 55213.4 -39.8079 15741.5 -11453.5 4422.03 0.05 
11387 1 -1.74203 -0.317587 6.73358 0 0 0 147.018 12765.9 -67459.2 -0.183416 41.8769 -39.8079 60006.6 -11354 -10403.1 0.05 
6813 1 -1.00675 -0.331113 6.7107 0 0 0 6.82129 -37.6128 -68184.5 0 52.8355 -39.8079 -2058.13 18839 -1325.8 0.05 
10564 1 -1.22496 0.248519 6.70608 0 0 0 121.999 251.455 -68383.4 0 -12.5902 -39.8079 7339.68 5379.02 -3964.87 0.05 
3934 1 -3.4004 -0.648979 6.79631 0 0 0 5463.81 5286.88 -64673 43794.7 42054.9 -39.8079 15707.4 -36673.4 -4753.8 0.05 
8337 1 -3.09203 -0.549209 6.76367 0 0 0 399.868 1113.88 -66451.4 62.9034 3390.67 -39.8079 -1720.62 -405.405 2440.86 0.05 
8625 1 -2.23107 0.846503 6.78846 0 0 0 106.049 118562 -66987.1 -0.545236 -1.65258e+08 -39.8079 7015.79 4767.2 -25241.5 0.05 
725 1 -2.28255 0.132006 6.81766 0 0 0 297.69 344.922 -65555.7 -0.621039 -1.13781 -39.8079 19882.6 26346.3 9850.67 0.05 
834 1 -1.17693 0.114954 6.84746 0 0 0 163.744 457.692 -65339.9 0 -0.717001 -39.8079 -44643.6 29238.6 -11075.7 0.05 
3415 1 -0.413563 -0.432138 6.90267 0 0 0 133.533 -116.891 -63586.4 0 315.987 -39.8079 655.04 -16201.2 2908.1 0.05 
8185 1 -2.06728 0.21413 6.91554 0 0 0 16.6738 -224.507 -63628.2 -0.367586 -6.69873 -39.8079 -18167.9 15718.5 5042.03 0.05 
14013 1 -3.3028 -0.805251 7.00187 0 0 0 6.78335 1604.82 2.33644 1.75788e+06 6.59762e+06 797062 -757.212 2.53083 3216.95 0.05 
196 1 -3.09802 -0.794714 7.00832 0 0 0 1.82066 2006.4 -169.893 414175 -332622 -512356 -10978 462.268 2710 0.05 
12327 1 -1.10085 -0.808383 7.00054 0 0 0 2.61922 754.14 2.21207 1.03697e+06 1.51345e+07 766248 -5350.68 123.657 3963.72 0.05 
6695 1 -0.781354 -0.809097 7.00083 0 0 0 1.8797 979.428 -4.36693 2.24853e+07 -8.50498e+08 -2.96981e+07 -19.9117 4.66746 829.974 0.05 
13221 1 -0.460251 -0.811666 6.99507 0 0 0 4.76526 985.746 -264.809 5.26991e+06 -2.02114e+08 3.16777e+06 -7710.31 -3332.42 1502.11 0.05 
9943 1 -2.92891 -0.759566 7.00364 0 0 0 132.42 543.631 -563.596 -4.41141e+06 1.30858e+07 -793329 -1456.66 12288.3 -2107.96 0.05 
13855 1 -1.7617 -0.752155 7.00175 0 0 0 37.3371 294.961 -73.5673 -493571 5.43607e+06 1.70245e+06 -3483.83 3642.73 -5419.05 0.05 
12243 1 -0.702939 -0.746051 6.99814 0 0 0 79.333 269.37 -334.363 -6.79751e+06 -2.4244e+08 1.10517e+06 -5310.03 2283.06 -5451.13 0.05 
11028 1 -0.585263 -0.762531 6.99618 0 0 0 -1.102 87.2161 -392.096 6.66507e+06 -2.16684e+08 1.24439e+06 -1290.34 -684.733 425.491 0.05 
5466 1 -0.115591 -0.776897 7.0044 0 0 0 -1.06776 493.163 -133.28 0 3.92645e+06 -39.8079 -10239 -3204.55 -3795.08 0.05 
13426 1 -3.28152 -0.731332 7.00828 0 0 0 301.447 243.132 -4.18788 4.30471e+07 3.34959e+07 -2.23024e+06 -1890.2 4964.01 -1994.46 0.05 
9896 1 -3.06177 -0.701016 7.0068 0 0 0 311.139 188.972 -235.248 3.09121e+06 4.09228e+08 1.57855e+07 357.889 -928.63 -3525.93 0.05 
11386 1 -2.4772 -0.713352 7.00162 0 0 0 282.597 262.164 -428.268 -1.35817e+06 987824 -136272 377.766 1496.19 -861.193 0.05 
11448 1 -3.34697 -0.658411 7.00282 0 0 0 418.693 146.955 -341.862 1.22525e+06 3.37261e+07 -915975 -6615.78 -6669.09 -70.3802 0.05 
9043 1 -2.27244 -0.662261 6.99979 0 0 0 336.878 5.14284 -308.092 -904876 1.27164e+07 -729195 -454.445 -2749.46 -170.141 0.05 
13214 1 -1.69749 -0.637362 7.00606 0 0 0 337.464 266.225 -158.164 -713013 599369 -725006 1745.46 2153.74 6007.27 0.05 
13698 1 -0.54035 -0.632518 6.99777 0 0 0 356.351 -24.4959 -236.831 0 26554.9 -39.8079 4820.93 -151.606 707.627 0.05 
3890 1 -3.44898 -0.604485 7.00137 0 0 0 458.982 24.2827 -366.109 -2.43852e+06 2.05535e+07 1.58485e+06 4309.32 12968.6 1677.73 0.05 
14036 1 -2.36718 -0.625195 6.9987 0 0 0 394.119 174.23 -246.798 -0.773517 21783.1 -39.8079 -2810.68 10591.6 -5057.98 0.05 
9387 1 -1.88019 -0.629375 6.9978 0 0 0 362.588 410.268 -203.909 -0.243134 24378.8 -39.8079 -10148.1 -3104.27 4983.85 0.05 
13329 1 -1.32322 -0.591758 7.00407 0 0 0 430.604 256.369 -0.00478043 -0.0863268 9225.11 -39.8079 -1941.81 4204.42 -4716.37 0.05 
5912 1 -0.350577 -0.593825 7.00096 0 0 0 423.986 404.222 -70.2555 0 9708.92 -39.8079 -8306.81 7485.19 2955.8 0.05 
11316 1 -2.80779 -0.55513 7.00161 0 0 0 287.696 210.03 -3.93199 -1.63032 3876.18 -39.8079 -3944.5 4585.05 -5793.04 0.05 
11479 1 -2.45437 -0.532191 6.9988 0 0 0 304.261 220.816 -310.105 1.75729e+06 299113 -190999 -3249.11 -6227.42 6457.19 0.05 
3581 1 -1.73797 -0.533733 7.00709 0 0 0 306.571 258.364 -385.235 -0.181952 2407.85 -39.8079 -8983.15 2409.56 2379.19 0.05 
12594 1 -0.810198 -0.546411 7.00428 0 0 0 300.21 -32.2131 -327.572 -925536 460558 -686157 2992.64 6965.35 2197.97 0.05 
10556 1 -0.704903 -0.536083 7.00688 0 0 0 305.801 258.391 -248.596 -414396 -899654 1.33748e+06 2130.85 -1187.39 266.96 0.05 
9307 1 -0.255922 -0.527767 6.99966 0 0 0 289.382 485.803 -288.794 0 2116 -39.8079 549.015 3441.22 1945.48 0.05 
12205 1 -3.11726 -0.502523 7.00181 0 0 0 227.219 83.3165 -313.413 -188086 -340241 -315138 908.752 5077.11 4649.38 0.05 
7966 1 -2.01838 -0.515046 7.00012 0 0 0 271.075 398.971 -67.7064 -0.328713 1614.23 -39.8079 -2696.06 2518.34 -512.502 0.05 
10984 1 -1.49966 -0.504844 6.99584 0 0 0 245.264 154.322 -393.938 134469 395955 -1.73631e+06 -3666.49 4206.1 574.293 0.05 
13525 1 -1.36905 -0.486241 7.00842 0 0 0 215.182 323.219 -55.3917 -671525 -588471 -260754 -3523.87 1955.64 4197.83 0.05 
5517 1 -3.35166 -0.433834 6.99995 0 0 0 6866.53 -3.28906 -1.45768 -3.00107e+07 -534505 -461323 -9.24602 -7454.75 3079.46 0.05 
6295 1 -3.22117 -0.468381 7.00442 0 0 0 127.988 325.598 -202 663.13 628.603 -39.8079 -7466.71 412.582 5921.79 0.05 
13644 1 -2.15633 -0.467591 6.99819 0 0 0 112.628 316.799 -175.674 -0.453729 619.014 -39.8079 4976.36 364.967 10131.3 0.05 
7434 1 -1.82313 -0.448389 7.00588 0 0 0 24.4728 10169.7 -248.099 -2.21973e+06 -1.11326e+08 -1.30823e+06 1085.56 2629.32 -2300.77 0.05 
7418 1 -1.68382 -0.446415 6.9946 0 0 0 0.857051 282.349 -286.097 -0.16376 412.665 -39.8079 -676.399 -2792.98 1280.38 0.05 
3483 1 -0.63753 -0.469533 7.00934 0 0 0 134.19 133.799 -6.45476 414396 902832 -1.33756e+06 -4322.01 1522.39 2244.94 0.05 
6072 1 -3.06714 -0.41461 7.00424 0 0 0 4.15952 64.5305 -100.13 896186 13002 80525.2 -390.766 -4191.31 1270.93 0.05 
11339 1 -2.07375 -0.370291 7.00112 0 0 0 2.33356 341.198 -314.671 -1.02224e+06 -1.73081e+08 906564 -751.775 695.299 -2965.13 0.05 
12492 1 -1.42302 -0.3995 7.00193 0 0 0 0.290928 283.972 -444.798 -0.102059 174.48 -39.8079 -5414.35 134.491 4899.75 0.05 
2539 1 -1.16146 -0.406773 7.00887 0 0 0 3.85519 189.358 -4.47753 -1.7073e+06 3.49109e+07 -990846 -1814.08 -105.213 -5944.51 0.05 
6261 1 -0.775931 -0.369009 6.99332 0 0 0 0.618799 44.0652 -308.55 0 101.814 -39.8079 1389.95 3757.27 2231.41 0.05 
11157 1 -0.354917 -0.407688 7.00132 0 0 0 8.17553 279.95 -210.85 1.04155e+07 -1.09883e+08 -1.67304e+06 -2235.78 -5859.65 5507.68 0.05 
12860 1 -0.239976 -0.402991 7.00327 0 0 0 3.75714 471.621 -1.05679 0 185.747 -39.8079 -3509.92 38.6517 -988.115 0.05 
10862 1 -2.83035 -0.320851 7.00964 0 0 0 228.397 160.914 -256.916 -382182 8.94285e+07 1.5534e+06 -700.073 -5207.29 -7702.73 0.05 
3298 1 -2.40001 -0.347905 7.00322 0 0 0 70.6903 -64.4886 -209.922 -1.26142e+07 -6.07415e+08 1.47949e+07 -1228.62 5036.16 -2737.57 0.05 
13080 1 -1.62703 -0.323544 7.00378 0 0 0 197.491 304.652 -0.930237 725261 -1.51026e+06 1513.7 -4257.94 1318.69 -6858.08 0.05 
11927 1 -1.26129 -0.327606 7.00103 0 0 0 188.17 128.702 -4.25886 -1.59781e+06 8.94636e+07 -1.56797e+06 -1265.35 1445.65 -3878.74 0.05 
11626 1 -3.32562 -0.292668 7.00609 0 0 0 300.201 -89.2943 -266.197 -6.17399e+06 -1.79077e+08 -3.51813e+06 5284.74 -2916.7 -5493.71 0.05 
3086 1 -3.06092 -0.308602 7.00946 0 0 0 258.047 76.6888 -347.064 36.4109 35.8861 -39.8079 -6271.32 5494.68 -4723.38 0.05 
246 1 -1.97255 -0.304033 7.00754 0 0 0 257.269 91.4925 -39.7854 -2.16263e+06 5.8845e+07 -2.41072e+06 -1744.6 2966.58 -4434.01 0.05 
13413 1 -0.749494 -0.269557 7.0073 0 0 0 335.255 54.4702 -74.4812 -243223 1.1089e+06 20543.9 5028.45 1410.47 -112.657 0.05 
10082 1 -0.0747141 -0.297949 7.00074 0 0 0 1.13775 54601.1 -103.024 2.06039e+07 -7.1989e+08 2.87953e+06 -47468.1 -2237.03 -28924.5 0.05 
13443 1 -2.61959 -0.231002 7.00067 0 0 0 315.103 140.113 -303.767 -1.07329e+06 -1.52813e+08 1.24134e+06 -6080.44 -1746.76 6244.14 0.05 
4622 1 -1.81741 -0.214873 7.01009 0 0 0 246.191 5.65833 -4.21586 -0.213408 6.7936 -39.8079 703.339 918.293 5645.47 0.05 
11055 1 -1.58238 -0.222201 7.00759 0 0 0 283.25 333.319 -126.541 -0.135367 7.79452 -39.8079 -9347.46 5214.08 4290.48 0.05 
9031 1 -1.07159 -0.252563 7.00494 0 0 0 334.661 289.162 -1.82558 -100547 311795 -629349 -2038.17 1869.07 5462.53 0.05 
8291 1 -0.433567 -0.223589 7.00701 0 0 0 268.52 -352.247 -241.639 4.0731e+08 -1.12592e+07 -1.64783e+07 1140.2 -4903.06 4030.1 0.05 
10863 1 -3.45501 -0.176331 6.99841 0 0 0 4361.88 -12.4856 -474.231 -5.08007e+07 -2.22542e+06 901243 -6450.27 -1328.48 6001.83 0.05 
11894 1 -3.17198 -0.176013 7.00149 0 0 0 98.126 93.1999 -7.51637 2.34803e+06 1.05828e+08 -2.63139e+06 -1144.45 536.084 1964.07 0.05 
12122 1 -0.56125 -0.189906 6.9923 0 0 0 174.222 -278.64 -438.256 0 4.17848 -39.8079 1537.8 4115.01 1475.05 0.05 
13658 1 -0.159193 -0.167715 6.99438 0 0 0 9.24128 127.765 -337.153 3.88668e+06 1.88555e+08 3.99775e+06 1060.95 -2267.59 -5101.1 0.05 
12127 1 -2.82773 -0.110535 7.00446 0 0 0 0.658219 -16.5174 -176.056 -1.45127 0.630429 -39.8079 -349.767 7175.76 -685.997 0.05 
7242 1 -1.01373 -0.154896 7.00125 0 0 0 2.10499 301.785 -440.675 0 1.97839 -39.8079 -4537.36 4110.27 -3968.13 0.05 
6839 1 -2.93476 -0.0563581 7.00058 0 0 0 91.9205 286.016 -1.03189 2.46237 0.0756246 -39.8079 -1689.84 3566.96 -6522.54 0.05 
8449 1 -2.52277 -0.0607196 7.00742 0 0 0 162.811 -4.52052 -328.312 -1.16773 0.0951078 -39.8079 -1837.05 8846.9 -3745.01 0.05 
9952 1 -1.27382 -0.0748931 7.00528 0 0 0 84.0763 1.56742 -1.39542 -0.0796601 0.182281 -39.8079 475.418 3136.13 -2102.83 0.05 
13065 1 -0.445938 -0.0754229 7.00081 0 0 0 60.1186 -390.178 -1.95425 0 0.18634 -39.8079 5055.88 2363.08 -659.839 0.05 
11753 1 -2.68121 -0.00665845 7.0025 0 0 0 158.951 -210.559 -188.977 -8.13686e+06 -1.21195e+06 -3.43327e+08 6602.82 3518.36 3154.23 0.05 
13038 1 -2.38113 -0.0449401 7.00643 0 0 0 161.747 -159.212 -291.648 -937902 49333.8 198075 8609.29 7014.95 2002.8 0.05 
9721 1 -2.21101 -0.0458421 6.99927 0 0 0 124.457 -77.1692 -296.335 -0.51868 0.0402219 -39.8079 7641.43 6678.46 742.105 0.05 
11177 1 -1.65645 -0.0132366 6.99827 0 0 0 137.287 278.761 -269.677 3.51802e+06 -5.58638e+08 -1.63513e+07 -7154.24 12361.8 -1280.96 0.05 
13866 1 -0.818783 -0.0106358 7.0101 0 0 0 182.547 -34.6982 -117.146 0 0.000491486 -39.8079 6114.23 3039.33 2960.67 0.05 
10773 1 -0.271564 -0.0382317 6.99901 0 0 0 125.834 285.341 -136.866 0 0.0231679 -39.8079 1343.81 7969.96 -5896.34 0.05 
9438 1 -3.44475 0.0210898 7.00182 0 0 0 4559.17 -61.9206 -171.057 -620895 553398 -711737 -1075.62 -7658.14 -2690.66 0.05 
1157 1 -1.05134 0.024824 7.00781 0 0 0 115.395 327.817 -0.86643 0 -0.00628356 -39.8079 -1803.03 4161.78 4188.08 0.05 
2032 1 -0.422464 0.045618 6.99582 0 0 0 1.15672 -302.125 -333.327 0 -0.0396259 -39.8079 5672.86 1259.79 -199.496 0.05 
5587 1 -2.27389 0.0569885 7.0066 0 0 0 52.0783 -180.287 -263.634 -0.607463 -0.0782521 -39.8079 -34.4933 5173.72 -2622.53 0.05 
4228 1 -2.03645 0.0874898 7.00413 0 0 0 119.851 20.0243 -2.11039 -0.342465 -0.297225 -39.8079 402.337 4506.62 -491.243 0.05 
5683 1 -1.90211 0.0558686 7.00452 0 0 0 29.811 8.69063 -1.06422 534404 -9416.93 -10575.9 277.676 1066.01 -231.946 0.05 
9104 1 -0.712783 0.0649129 7.00734 0 0 0 89.2288 128.576 -193.02 -1.37129e+06 1.04568e+08 550812 2716.5 8492.9 -3269.5 0.05 
11421 1 -3.44806 0.15509 7.00132 0 0 0 4495.87 66.352 -183.42 -6.09764e+07 -29131.9 -130989 -1621.87 -4402.03 1768.48 0.05 
1592 1 -1.43632 0.120417 7.00403 0 0 0 178.139 -184.295 -226.762 -992720 -1.11695e+08 958759 2186.54 52.994 476.816 0.05 