ITEM: TIMESTEP
260000
ITEM: NUMBER OF ATOMS
14052
ITEM: BOX BOUNDS ff pp ff
-3.75 3.75
-1 1
0 10
ITEM: ATOMS id type x y z ix iy iz vx vy vz fx fy fz omegax omegay omegaz radius 
9412 1 -2.15414 -0.351693 5.3955 0 0 0 1.89464 14.6512 -171840 -0.451335 75.3473 -39.8079 -9278.38 13846.1 5701.27 0.05 
13821 1 -1.59505 -0.511022 5.40408 0 0 0 0.275183 105.576 -171857 -0.138558 1483.7 -39.8079 4511.3 3783.37 -2558.63 0.05 
10206 1 -3.2255 0.652934 5.4292 0 0 0 223.625 -338.36 -170107 721.913 -47115.9 -39.8079 5136.14 -10974 -8981.36 0.05 
12795 1 -2.98744 -0.318575 5.47391 0 0 0 496.068 -76.1835 -168732 9.17673 42.5937 -39.8079 -10403.9 3184.62 3882.04 0.05 
13215 1 -0.227487 -0.105384 5.46246 0 0 0 -0.415757 615.338 -169069 0 0.539645 -39.8079 56.5582 22216.6 -6775.57 0.05 
7183 1 -0.750525 -0.362189 5.52392 0 0 0 -0.775491 310.248 -166448 0 90.3993 -39.8079 -12783.2 -9045.73 -4366.71 0.05 
4371 1 -1.71273 0.398474 5.51007 0 0 0 0.978137 -152.086 -167037 -0.173178 -171.309 -39.8079 17513.9 -2599.57 17.1685 0.05 
11397 1 -0.430416 0.754217 5.51758 0 0 0 0.381765 55.4483 -166689 0 -1.4908e+06 -39.8079 9019.46 16450.5 -5556.43 0.05 
12202 1 -1.69918 -0.493473 5.57742 0 0 0 179.822 82.5 -164076 -0.168682 1034.34 -39.8079 9591.61 11592.2 3632.57 0.05 
10576 1 -3.27063 0.235893 5.58298 0 0 0 288.579 -171.664 -164748 1815.92 -10.0274 -39.8079 -34639.3 13625.1 1203.32 0.05 
13017 1 -1.4873 -0.796049 5.6069 0 0 0 0.909249 569.007 -163153 -0.114108 9.63495e+06 -39.8079 -24189.3 -7438.98 3021.17 0.05 
8448 1 -0.483478 -0.800433 5.68646 0 0 0 0.508839 333.574 -159922 0 1.19737e+07 -39.8079 -5624.8 -12451.1 599.922 0.05 
13635 1 -1.11898 0.676845 5.69687 0 0 0 1.12983 -248.792 -159669 0 -96346.6 -39.8079 23219.4 1106.72 3265.97 0.05 
11049 1 -2.64933 -0.218464 5.74322 0 0 0 133.741 -5.5785 -157302 -1.5842 7.26873 -39.8079 18.8217 -15907.8 3665.63 0.05 
9405 1 -1.49444 0.136851 5.75249 0 0 0 152.075 67.4589 -157450 -0.115553 -1.28631 -39.8079 -6349.9 -4238.04 -3403.14 0.05 
11202 1 -0.850408 0.250114 5.70876 0 0 0 123.447 238.648 -159224 0 -12.954 -39.8079 -9912.06 27218.7 2176.75 0.05 
11924 1 -1.4842 -0.676848 5.79419 0 0 0 0.0425372 -132709 -156145 -0.113487 96354.4 -39.8079 -713.479 -4098.91 8296.87 0.05 
12319 1 -0.0529327 0.160706 5.76178 0 0 0 -0.207636 85.6351 -158386 0 -2.25545 -39.8079 -4133.99 98548.8 -3973.59 0.05 
13254 1 -1.96442 0.52915 5.79193 0 0 0 -0.150736 27.6445 -155765 -0.291484 -2180.05 -39.8079 -7367.64 -23625.4 3565.41 0.05 
12761 1 -0.541566 0.531647 5.78274 0 0 0 0.273628 -327.088 -156298 0 -2301.11 -39.8079 16792.2 -12762.6 -880.602 0.05 
11242 1 -1.16453 0.579468 5.82228 0 0 0 -0.0422323 -200.707 -155175 0 -6841.91 -39.8079 11388 -13157.8 4496.39 0.05 
12900 1 -3.48937 0.803441 5.85862 0 0 0 309.636 -508.917 -151839 828986 -1.39373e+07 -39.8079 -23920.6 40304.7 -3110.64 0.05 
8681 1 -0.510981 0.825025 5.8475 0 0 0 -0.925695 -714.468 -153783 0 -4.46062e+07 -39.8079 -50699.1 11980.1 1235.89 0.05 
12566 1 -1.89893 0.274196 5.86398 0 0 0 77.5525 -317.074 -153211 -0.252984 -19.8006 -39.8079 -16700 2013.15 5382.68 0.05 
10609 1 -1.77685 -0.320639 6.00514 0 0 0 1.51252 -165.219 -147349 -0.196576 44.1309 -39.8079 27672.1 -1753.56 3676.46 0.05 
12455 1 -2.35564 -0.30891 5.97711 0 0 0 1.67213 168.304 -148866 -0.750438 36.0768 -39.8079 7925.15 12355.5 -4376.61 0.05 
4032 1 -1.64334 0.243099 5.97449 0 0 0 0.993796 310.862 -148998 -0.151619 -11.424 -39.8079 9126.22 20299.1 3259.07 0.05 
7677 1 -1.36622 0.537302 5.98138 0 0 0 -0.253296 -136.758 -149126 -0.092706 -2603.19 -39.8079 -7104.88 7447.28 662.835 0.05 
11415 1 -0.878193 0.827255 5.9926 0 0 0 238.893 -863.704 -148344 0 -5.07118e+07 -39.8079 -96357.5 -10605.3 1405.99 0.05 
8255 1 -3.29382 -0.428905 6.02486 0 0 0 175.972 68.465 -146740 3005.51 297.642 -39.8079 -29492.7 -11449 4606.84 0.05 
13781 1 -2.52487 -0.000989412 6.09559 0 0 0 31.3856 1.24119 -144580 -1.17414 3.95181e-07 -39.8079 5489.15 -18032.1 -657.816 0.05 
6492 1 -1.69828 0.758795 6.10867 0 0 0 110.525 -196.137 -142339 -0.16839 -1.79932e+06 -39.8079 16696.9 -12891.1 2389.16 0.05 
9165 1 -2.43694 -0.769595 6.1599 0 0 0 69.1415 55.4811 -141097 -0.930436 2.84511e+06 -39.8079 -44682.4 13410.2 -3042.24 0.05 
12363 1 -3.15229 -0.415573 6.14345 0 0 0 355.596 239.596 -142172 182.683 233.147 -39.8079 8225.56 -3555.31 5490.18 0.05 
6487 1 -3.35937 -0.326022 6.16067 0 0 0 396.806 223.839 -141599 14377.5 48.4075 -39.8079 12836.7 -22377.9 -7704.65 0.05 
7639 1 -0.954661 -0.193491 6.14472 0 0 0 -1.0914 165.7 -141912 0 4.48927 -39.8079 15457.6 21674 1082.4 0.05 
11852 1 -2.18591 -0.539268 6.22034 0 0 0 209.781 264.781 -138928 -0.487576 2718.1 -39.8079 11897.3 19456.2 984.161 0.05 
10766 1 -2.77715 0.0259822 6.21929 0 0 0 274.323 -645.343 -139270 -1.76895 -0.00720943 -39.8079 -41199.7 -4787.51 941.861 0.05 
13278 1 -2.04448 0.816414 6.18682 0 0 0 147.39 -1142.34 -140221 -0.348803 -2.75889e+07 -39.8079 -69159.6 7820.31 8625.9 0.05 
3777 1 -2.74189 -0.321251 6.24565 0 0 0 477.102 -46658.1 -137498 -1.79774 44.5975 -39.8079 2511.96 -4716.12 -2155.11 0.05 
11713 1 -2.15401 -0.247568 6.25923 0 0 0 187.819 -811.193 -137639 -0.451195 12.378 -39.8079 12852.1 -8865.71 6541.5 0.05 
9454 1 -2.46727 -0.122048 6.26313 0 0 0 23.8613 148.175 -137789 -1.00859 0.874275 -39.8079 8704.99 5585.32 2765.96 0.05 
12207 1 -0.638594 0.464888 6.23388 0 0 0 -0.261889 -17318 -139063 0 -587.394 -39.8079 -20262.1 -18969.9 601.985 0.05 
3037 1 -0.656237 0.0307071 6.32072 0 0 0 51.9572 -3.79083 -135437 0 -0.0119362 -39.8079 -3964.81 -4136.05 3439.81 0.05 
10622 1 -2.53208 -0.515536 6.36412 0 0 0 149.526 3.09072 -132670 -1.19636 1630.95 -39.8079 -19546.9 30099.5 -1973.68 0.05 
9289 1 -0.142855 0.319289 6.32974 0 0 0 1.1644 -131.286 -134108 0 -43.1193 -39.8079 -3624.17 -6460.88 4435.75 0.05 
9291 1 -0.582917 -0.163758 6.39337 0 0 0 0.867404 -55.9492 -132285 0 2.41317 -39.8079 9808.39 -21308.2 -682.456 0.05 
8417 1 -2.52968 -0.856456 6.44509 0 0 0 9.37304 -66442.1 -129879 -1.18894 3.231e+08 -39.8079 7807.19 -6700.52 1209.71 0.05 
1298 1 -2.32029 -0.555489 6.44154 0 0 0 79.3297 274.914 -130642 -0.684382 3907.98 -39.8079 5833.24 8835.42 -5717.94 0.05 
6601 1 -3.06832 -0.241337 6.43872 0 0 0 222.059 156.804 -130485 41.4908 11.0668 -39.8079 1511.83 7088.19 3380.35 0.05 
11208 1 -0.92292 0.319539 6.52572 0 0 0 -0.489781 -313.998 -127289 0 -43.305 -39.8079 -18203.6 16205.6 -2992.52 0.05 
10028 1 -3.4484 0.697017 6.5073 0 0 0 386.392 -271.25 -126502 192349 -183718 -39.8079 44558.4 21410.1 2807.04 0.05 
11214 1 -1.91026 0.816841 6.54175 0 0 0 194.512 -913.522 -125393 -0.259176 -2.82389e+07 -39.8079 -70915.1 587.244 -4847.1 0.05 
206 1 -2.29153 -0.76112 6.61252 0 0 0 83.4541 63.53 -122356 -0.635479 1.98236e+06 -39.8079 -18401.5 -18084.4 1061.65 0.05 
2112 1 -1.37508 -0.396571 6.58802 0 0 0 111.049 -54.5447 -124158 -0.0940935 165.586 -39.8079 1233.91 1872.77 1305.06 0.05 
8660 1 -2.90147 -0.78422 6.67726 0 0 0 534.999 434.865 -119849 0.41447 5.4822e+06 -39.8079 14477.5 -14760.4 -8301.81 0.05 
12559 1 -2.79812 -0.772538 6.6882 0 0 0 32464 37.0335 -119774 -1.68919 3.23553e+06 -39.8079 -43723.8 -25383.5 -13862.8 0.05 
9911 1 -2.30489 -0.190481 6.67829 0 0 0 90.3066 -152.24 -121287 -0.657678 4.2271 -39.8079 -9458.35 6156.14 792.257 0.05 
13478 1 -2.79328 0.408137 6.64591 0 0 0 449.637 -45.6355 -121456 -1.71301 -203.769 -39.8079 -10129.5 -26863.5 2476.92 0.05 
4730 1 -2.35157 0.573264 6.66066 0 0 0 334.723 -235.05 -121644 -0.742481 -5902.28 -39.8079 20948.1 -7961.38 -4366.16 0.05 
4350 1 -1.9403 -0.598862 6.73754 0 0 0 93.4383 630.454 -117650 -0.276517 11008 -39.8079 -12400.1 -42919.9 4136.68 0.05 
13047 1 -1.47143 -0.505542 6.72682 0 0 0 2.72496 121.486 -118930 -0.110975 1324.07 -39.8079 -5261.26 -2525.86 1985.84 0.05 
7680 1 -0.230753 0.660118 6.73952 0 0 0 -0.0890154 3.52446 -117826 0 -58106.6 -39.8079 -7670.81 -7350.76 -6526.56 0.05 
3659 1 -1.15947 -0.613449 6.75816 0 0 0 5.16334 430.702 -117801 0 15976.6 -39.8079 2733.13 11103 -565.496 0.05 
9947 1 -0.484503 -0.205257 6.74964 0 0 0 0.987894 -342.507 -117774 0 5.65372 -39.8079 -10103.5 12433.8 10082.9 0.05 
12040 1 -3.19548 0.0963677 6.82295 0 0 0 471.713 -356.738 -114849 404.779 -0.404426 -39.8079 15089.1 17082 -86.3417 0.05 
11268 1 -1.93233 -0.197309 6.84614 0 0 0 1.76208 -81.2142 -114222 -0.271781 4.84189 -39.8079 29864.8 -3618.73 -685.673 0.05 
7591 1 -0.677 0.714669 6.86006 0 0 0 -0.00815119 68.8659 -113236 0 -335049 -39.8079 14341 -7770.88 7549.9 0.05 
12192 1 -0.206459 0.180427 6.89966 0 0 0 2.37786 -93.6073 -112466 0 -3.44361 -39.8079 19408.4 -524.192 3250.39 0.05 
13500 1 -0.507378 0.398093 6.91653 0 0 0 0.976704 118918 -111017 1.40559e+07 -4.21725e+08 4.29525e+08 38074.9 9046.36 3384.09 0.05 
9169 1 -1.88575 -0.875919 6.98069 0 0 0 32.5266 72474.2 -109837 3.47957e+07 2.63461e+08 1.14043e+09 15041.5 -31418.5 20475.9 0.05 
14013 1 -3.30285 -0.833357 7.00185 0 0 0 0.036232 1473.38 -0.0988076 3680.41 7.26569e+07 -39.8079 -957.997 4.39134 3796.95 0.05 
12327 1 -1.10086 -0.82071 7.00052 0 0 0 0.192903 648.218 0.275702 447356 4.61248e+07 1.60659e+06 -5664.49 14.3526 3953.26 0.05 
6695 1 -0.781351 -0.826821 7.00087 0 0 0 -0.62087 725.277 -2.71174 1.00806e+07 -1.06653e+09 2.66175e+07 -468.411 -2.39174 44.8789 0.05 
12444 1 -0.778905 -0.846543 7.00773 0 0 0 4.26255 -136543 -107.857 -6.75319e+06 1.72217e+09 -1.45463e+07 55.6547 -3968.05 -2074.38 0.05 
13221 1 -0.460277 -0.829656 6.99991 0 0 0 0.754055 922.102 -272.149 238764 5.24449e+07 1.59249e+06 -9657.53 -3194.12 -533.912 0.05 
13855 1 -1.76239 -0.756384 7.00277 0 0 0 39.9394 47.1965 0.508969 6.18438e+06 3.40116e+08 4.65033e+06 362.456 610.649 369.875 0.05 
1680 1 -1.26735 -0.733931 7.00975 0 0 0 -1.24145 78451.8 -174.504 5.78396e+07 -1.04032e+09 -7.80588e+08 -53036.2 2503.6 -5120.7 0.05 
13249 1 -1.23773 -0.756803 6.98077 0 0 0 203.297 494.634 -107805 -4.79077e+07 5.20173e+08 1.48924e+09 -26135.9 22663.7 47.8736 0.05 
12243 1 -0.704304 -0.751267 7.00116 0 0 0 72.9501 138.852 0.117514 0 1.32308e+06 -39.8079 -5046.83 336.821 -1921.48 0.05 
11028 1 -0.585253 -0.766691 7.00049 0 0 0 -0.984516 237.972 -0.455942 0 2.51014e+06 -39.8079 -3918.86 -7.42684 5029.43 0.05 
5466 1 -0.115562 -0.783665 7.00644 0 0 0 -0.314561 368.269 -1.02518 0 5.3432e+06 -39.8079 -6037.33 -0.618337 -1906.12 0.05 
13426 1 -3.28592 -0.734771 7.00829 0 0 0 232.607 167.894 1.12885 2525.15 695986 -39.8079 -1244.43 3585.95 138.524 0.05 
11386 1 -2.48231 -0.718046 7.00709 0 0 0 283.658 259.895 -189.377 -1.04966 377444 -39.8079 1642.02 7663.69 -797.809 0.05 
11448 1 -3.35339 -0.659182 7.00548 0 0 0 340.22 0.468704 -0.220009 12338.7 56526.3 -39.8079 0.00307506 769.836 372.976 0.05 
9043 1 -2.27851 -0.662276 7.00116 0 0 0 336.617 0.528539 -4.9475 -0.61466 61937.6 -39.8079 234.082 1460.24 -132.83 0.05 
9387 1 -1.88672 -0.635315 7.00148 0 0 0 364.938 118.796 -205.477 -1.31045e+06 776704 -133865 -8149.93 -3043.57 -4343.74 0.05 
7434 1 -1.8236 -0.633796 7.00842 0 0 0 21.5474 10375.6 -5.32919 4.55634e+06 -7.01224e+07 1.71641e+06 5939.78 581.767 -705.178 0.05 
13214 1 -1.70359 -0.641977 7.00819 0 0 0 340.047 -5.30896 -0.550765 -51255.6 464831 -302660 89.0836 601.034 2111.51 0.05 
13698 1 -0.546822 -0.635778 7.00079 0 0 0 362.736 156.769 -6.94178 -842046 7.52762e+07 -26592.5 -2696.07 2474.83 2160.53 0.05 
3890 1 -3.45703 -0.604567 7.00435 0 0 0 444.32 0.108145 -0.0222579 257207 12714.4 -39.8079 1.2815 3947.3 792.38 0.05 
14036 1 -2.37427 -0.628339 7.00081 0 0 0 394.27 174.645 -77.2311 -0.788094 23705.6 -39.8079 -5492.48 5111.42 -5038.93 0.05 
13329 1 -1.33097 -0.596 7.00407 0 0 0 431.973 46.1338 0.132087 -0.0874351 10248.1 -39.8079 -1454.34 4203.75 -11198.5 0.05 
5912 1 -0.358213 -0.60089 7.00151 0 0 0 424.913 322.506 -2.88864 -495215 6.68626e+07 -4109.92 -4875.7 4402.42 4833.26 0.05 
10082 1 -0.0747397 -0.587787 7.00175 0 0 0 0.450001 -56869.2 -0.355244 -547903 3.05888e+08 2.0373e+07 -56376.2 60.0505 -32151.4 0.05 
11316 1 -2.81298 -0.558681 7.00168 0 0 0 293.014 115.72 -3.6413 -1.91477e+06 8.3554e+07 -1.51605e+06 -2105.87 4696.07 -3514.3 0.05 
11479 1 -2.45979 -0.536157 7.00438 0 0 0 299.364 220.073 -309.647 -0.988754 2538.67 -39.8079 -3219.48 -6393.67 6509.08 0.05 
12594 1 -0.815628 -0.54979 7.0068 0 0 0 303.026 -6.34814 -1.19245 79268.6 129957 -257428 -29.1419 4242.57 -301.778 0.05 
10556 1 -0.710441 -0.541362 7.00977 0 0 0 309.142 160.07 -0.113003 -45015.2 -837853 917456 -5327.4 3815.63 2934.36 0.05 
9307 1 -0.261149 -0.535922 7.00187 0 0 0 290.889 474.585 1.12027 3.0301e+06 6.69681e+07 692967 -3806.32 4721.82 1817.81 0.05 
12205 1 -3.12136 -0.503496 7.00406 0 0 0 228.678 -82.0428 -77.2129 -317949 5.04925e+07 -644458 -3109.78 2293.85 -600.119 0.05 
7966 1 -2.02326 -0.520597 7.00054 0 0 0 271.21 261.382 -1.1449 -0.332361 1815.18 -39.8079 -5905.43 4623.78 3846.23 0.05 
10984 1 -1.50409 -0.506507 7.0029 0 0 0 247.194 161.633 -390.716 222288 157842 -910883 -3885.11 4351.35 494.171 0.05 
13525 1 -1.37295 -0.492082 7.0094 0 0 0 220.174 325.885 -54.296 -1.73454e+06 -738478 -90178.1 -3494.27 1950.99 4074.88 0.05 
5517 1 -3.47679 -0.433778 6.99998 0 0 0 7050.28 -4.99338 -2.75713 -6.71695e+07 1.31967e+06 584549 7.23941 -3451.24 4560.32 0.05 
6295 1 -3.22346 -0.473607 7.00808 0 0 0 126.872 133.082 -205.643 -4.14379e+06 1.27564e+08 -4.17381e+06 -6009.75 415.145 5330.99 0.05 
13644 1 -2.15833 -0.468469 7.00113 0 0 0 110.369 295.128 -157.608 -0.455918 629.682 -39.8079 3610.94 -316.962 8389.43 0.05 
7418 1 -1.68383 -0.450917 6.99946 0 0 0 0.514568 2.61529 -265.136 -0.163765 449.371 -39.8079 5489.76 -2169.14 -97.8091 0.05 
3483 1 -0.639919 -0.471781 7.0094 0 0 0 131.912 12.544 -0.351601 45015.2 841371 -917535 394.696 1745.33 2048.16 0.05 
6072 1 -3.06718 -0.415537 7.00606 0 0 0 0.777197 -120.627 -100.472 40.6612 232.995 -39.8079 -2648.17 -4321.84 -1513.01 0.05 
11339 1 -2.07382 -0.373343 7.00562 0 0 0 2.34727 428.745 -117.105 -0.37319 109.833 -39.8079 -6443.07 -4632.08 -1266.77 0.05 
12492 1 -1.42302 -0.404611 7.0091 0 0 0 -0.51558 284.147 -257.148 -0.10206 191.232 -39.8079 -2755.5 5907.27 4906.39 0.05 
2539 1 -1.1615 -0.407865 7.0089 0 0 0 0 0.00129923 -0.00025506 0 202.774 -39.8079 0 0 0 0.05 
6261 1 -0.77594 -0.372346 6.99889 0 0 0 0.304507 1.68032 -309.06 21263.2 138130 -19991.8 -1149.12 3748.84 40.9499 0.05 
11157 1 -0.354933 -0.412549 7.00165 0 0 0 -0.363799 253.588 -0.0297868 0 220.694 -39.8079 -2619.93 -3.18921 5536.32 0.05 
12860 1 -0.240008 -0.409634 7.00328 0 0 0 -0.805971 231.884 0.342626 -2.59089e+06 1.16251e+08 -28062.3 -2009.07 -7.46255 -4896.79 0.05 
3298 1 -2.40119 -0.352062 7.00696 0 0 0 65.2208 251.121 -207.485 -0.846192 75.8307 -39.8079 -7407.33 4969.75 -8391.18 0.05 
13080 1 -1.63048 -0.326709 7.0038 0 0 0 47.5586 52.1947 0.383934 4.34469e+08 -1.50403e+07 3.13605e+06 -64.9487 329.701 2393.88 0.05 
11927 1 -1.26368 -0.326236 7.00107 0 0 0 0.226222 -336.624 -0.503261 -0.0783714 48.5855 -39.8079 1481.56 0.0700482 588.26 0.05 
246 1 -1.97724 -0.307752 7.00776 0 0 0 260.68 227.106 -0.510804 -0.299837 35.3657 -39.8079 -4401.5 1334.13 -10537.5 0.05 
13413 1 -0.751369 -0.272282 7.00862 0 0 0 1.42865 3.56977 -73.1443 315107 1.80788e+06 -93433.3 3152.18 55.2014 30.0197 0.05 
13443 1 -2.62523 -0.236172 7.00612 0 0 0 313.471 235.226 -303.185 -1.50413 10.0785 -39.8079 -8922.86 -1780.99 4818.83 0.05 
4622 1 -1.82185 -0.210861 7.01014 0 0 0 247.524 -333.481 -1.49571 -0.215361 6.29543 -39.8079 1618.76 921.204 5554.22 0.05 
11055 1 -1.5872 -0.224196 7.00949 0 0 0 14.94 246.189 0.138825 3.88771e+08 1.31872e+07 8.16392e+06 -5413.8 67.1794 3273.53 0.05 
9031 1 -1.07493 -0.255678 7.00495 0 0 0 -0.349827 0.558164 -0.133434 0 14.3012 -39.8079 -36.4954 -0.289483 8.36268 0.05 
10863 1 -3.53509 -0.176197 7.00654 0 0 0 4529.59 -4.49168 -27.5868 -2.4324e+07 -1.85178e+07 -5.80486e+08 -467.256 -1169.67 4998.5 0.05 
11894 1 -3.17372 -0.17628 7.00156 0 0 0 96.2267 3.30009 -1.88045 110759 1.45831e+06 -899926 -72.813 702.033 4006.67 0.05 
7242 1 -1.01376 -0.15791 7.00704 0 0 0 0.575333 0.379946 -184.543 0 2.11847 -39.8079 3269.03 5355.09 3.02773 0.05 
12122 1 -0.561727 -0.185353 7.0002 0 0 0 -0.626737 -30.9048 -441.548 -5.27288e+06 -2.31167e+08 566219 -1454.95 2315.73 -497.981 0.05 
13658 1 -0.159218 -0.1663 6.99993 0 0 0 -0.0761403 -113.649 -100.581 0 2.55126 -39.8079 -2639.43 -3401.52 -4764 0.05 
12127 1 -2.82774 -0.110228 7.00646 0 0 0 0.149022 -17.5509 -51.8904 -1.4512 0.624723 -39.8079 -1219.28 2152.68 -731.6 0.05 
6839 1 -2.93641 -0.0589105 7.0006 0 0 0 91.1857 -7.34026 -0.64514 2.59665 0.0866513 -39.8079 -34.7173 3569.02 -2026.01 0.05 
9952 1 -1.27533 -0.072037 7.0053 0 0 0 83.8854 -335.815 -0.280635 -0.0798542 0.161464 -39.8079 779.265 3131.86 -3371.85 0.05 
13065 1 -0.446806 -0.0702868 7.00084 0 0 0 0.144308 -108.108 -0.227589 -5.12921e+06 -1.13942e+08 10494.2 1258.93 -7.64402 4396.4 0.05 
11753 1 -2.68404 -0.00867447 7.00493 0 0 0 155.241 36.8637 -133.569 114979 132822 971852 1428.76 1699.51 5394.41 0.05 
13038 1 -2.38405 -0.0458565 7.01027 0 0 0 161.374 206.625 -1.12419 431155 -224351 -617668 -2277.82 5516.58 -8053.74 0.05 
9721 1 -2.21322 -0.0449262 7.00071 0 0 0 122.864 -3.60597 0.173475 -0.521539 0.0378241 -39.8079 90.524 4807.09 -1539.58 0.05 
11177 1 -1.65898 -0.0167281 7.00187 0 0 0 143.462 -18.7748 -1.01146 -155610 -325755 -578313 885.157 5526.02 82.7342 0.05 
10773 1 -0.273206 -0.0425407 7.00147 0 0 0 0.335501 276.649 -136.982 0 0.0320399 -39.8079 1679.57 3050.63 -4799.96 0.05 
9438 1 -3.52894 0.0218957 7.00378 0 0 0 4810.14 4.15704 1.70353 -4.05762e+07 -857821 -917616 -102.762 1784.07 -1846.55 0.05 
1157 1 -1.05342 0.0220045 7.00782 0 0 0 115.779 0.284654 -0.332847 0 -0.00437018 -39.8079 -34.9352 4161.11 2477.71 0.05 
2032 1 -0.422475 0.0502702 7.00115 0 0 0 -0.265219 -22.1805 -0.579752 -1.88281e+06 -1.69626e+08 -4.83213e+06 299.911 -3.45087 -5.10636 0.05 
8437 1 -3.4226 0.102818 6.98701 0 0 0 584.967 38138.2 -108237 -6.96049e+06 -1.46424e+08 3.91786e+08 19369.7 -34482.5 -4845.01 0.05 
5587 1 -2.27479 0.0582499 7.00881 0 0 0 49.1615 0.161683 -94.3527 -0.608851 -0.0836976 -39.8079 -74.9332 5912.01 -1512.14 0.05 
8359 1 -2.18642 0.0596835 6.95926 0 0 0 77.7597 -401.521 -109586 -0.488192 -0.0901981 -39.8079 -5819.2 -7486.86 -11905.4 0.05 
4228 1 -2.0386 0.0883496 7.00418 0 0 0 118.883 8.77039 -3.93615 -5.75737e+06 3.84135e+07 -1.57076e+07 -105.813 4535.73 -1877.52 0.05 
5683 1 -1.90261 0.0576163 7.00453 0 0 0 25.0432 -107.675 -0.375632 1.12738e+06 47039.4 -215325 841.338 931.526 -5242.04 0.05 
11421 1 -3.53076 0.155082 7.0034 0 0 0 4685.63 -54.5614 -1.34696 -5.84451e+07 -1.40498e+08 -2.53419e+06 1791.89 1184.67 2088.66 0.05 
1592 1 -1.43948 0.118099 7.0081 0 0 0 175.767 236.509 -226.107 -0.104988 -0.783829 -39.8079 -3519.82 91.4354 5863.85 0.05 
3720 1 -0.322293 0.113791 7.00094 0 0 0 -0.642987 314.366 -1.08916 0 -0.693401 -39.8079 -3270.22 -0.33877 1866.9 0.05 
11518 1 -3.2494 0.186092 7.00306 0 0 0 4.09366 -78.1573 -231.024 7.05433e+06 -1.72117e+08 33903.7 -4796.11 -2626.73 2022.89 0.05 
8568 1 -3.02181 0.189499 7.00797 0 0 0 1.26803 -192.696 -0.129832 17.9544 -4.14444 -39.8079 -835.018 12.1587 1442.62 0.05 
11832 1 -2.59856 0.185919 7.00213 0 0 0 1.01878 -29.7754 -0.625173 3.67768e+06 -1.28534e+08 -2.30714e+06 744.842 5.24247 964.376 0.05 
11037 1 -1.58294 0.169703 7.00219 0 0 0 73.8672 -0.0244438 -118.621 -0.135506 -2.74631 -39.8079 -1007.31 3774.08 1809.56 0.05 
5472 1 -1.06037 0.18504 7.00206 0 0 0 -0.480115 0.438008 -0.479832 0 -3.78622 -39.8079 -36.5086 0.40685 1.12942 0.05 
8636 1 -0.449467 0.159279 7.00616 0 0 0 -3.1763 -329.39 -2.62731 6.40702e+06 -2.05604e+08 5.26439e+06 3497.32 -2.75728 2325.01 0.05 
13760 1 -3.58403 0.254386 7.00092 0 0 0 1461.17 -181.752 -0.449268 6.77726e+07 345765 -830334 5974.67 1828.29 20.041 0.05 
10467 1 -3.39086 0.225017 7.00623 0 0 0 0.329992 -62.1959 0.383996 3.83293e+06 -1.14775e+08 859506 657.386 -15.4999 -2697.43 0.05 
3741 1 -1.25446 0.224904 7.0102 0 0 0 0.444528 -331.801 -0.221716 -0.0772227 -8.19584 -39.8079 -7.20369 -1.50365 1997.48 0.05 
6836 1 -0.737036 0.275074 7.00358 0 0 0 0.666235 5.3506 -0.280503 0 -20.1057 -39.8079 -128.411 -2.73545 -15.7716 0.05 
5181 1 -3.31231 0.34594 7.00142 0 0 0 340.175 -308.945 -1.13238 4569.14 -68.2138 -39.8079 3858.65 5791.69 -7304.2 0.05 
5457 1 -2.83046 0.322907 7.00493 0 0 0 219.112 0.624134 -65.9053 -1.41964 -45.8845 -39.8079 -2818.02 6535.62 -4939.71 0.05 
4861 1 -2.72452 0.353751 7.01018 0 0 0 391.646 -163.199 -97.6953 -694592 -287180 -816004 641.585 1986.61 -10380.4 0.05 
9264 1 -2.58806 0.318699 7.01012 0 0 0 195.309 -97.3733 -1.00109 -1.37832 -42.684 -39.8079 2085.51 5294.97 -196.299 0.05 
7879 1 -2.47365 0.352556 7.0101 0 0 0 383.677 63.2495 -1.19798 -1.02583 -76.4813 -39.8079 2402.55 5587.35 -4912.58 0.05 
13743 1 -2.13893 0.356307 7.00111 0 0 0 214.145 2.25414 -1.9464 -0.435129 -81.6186 -39.8079 48.7487 276.989 -6015.55 0.05 
12717 1 -1.96532 0.366517 7.00125 0 0 0 246.287 -114.008 -0.412373 -184368 126587 -205526 2665.1 317.001 -2060.95 0.05 
5648 1 -1.35464 0.329506 7.00356 0 0 0 0.0315784 -36.7368 -0.781267 -97643.5 127384 -18900.9 3939.53 -13.6385 -8082.66 0.05 
13166 1 -1.77314 0.418842 7.00304 0 0 0 70758.5 278.153 -1.68792 -6.97798e+08 3.29332e+06 -1.62826e+07 -887.542 -61967.7 -29086.2 0.05 
11062 1 -0.771385 0.402323 7.00205 0 0 0 0.699002 3.0762 -0.887186 0 -183.532 -39.8079 -144.685 -1.31459 215.002 0.05 
12140 1 -0.470411 0.379615 7.00339 0 0 0 0.0849621 -293.28 -139.8 -1.40559e+07 4.21725e+08 -4.29525e+08 10271.8 -2533.03 -2254.19 0.05 
4450 1 -3.09636 0.434677 7.00507 0 0 0 319.822 -227.925 -0.315582 5.32669e+06 -6.93451e+07 -452498 2322.76 -114.944 -2205.06 0.05 
13401 1 -1.49074 0.44553 7.00629 0 0 0 -1.84313 -284.566 -142.651 505109 -1.24781e+08 4.08597e+06 9371.45 443.402 -1565.75 0.05 
13997 1 -1.31737 0.436021 7.0015 0 0 0 0.291073 -246.317 -0.19784 -0.0855025 -339.619 -39.8079 4166.26 15.5116 -8390.29 0.05 
12657 1 -1.2116 0.457443 7.00114 0 0 0 0.149443 -231.993 -0.112368 0 -508.926 -39.8079 996.856 -2.47231 6286.94 0.05 
13330 1 -0.0551562 0.427342 7.00397 0 0 0 0.749453 -322.131 -0.220364 464306 326832 -368753 -283.216 -2.36797 2996.74 0.05 
12618 1 -3.58065 0.483763 7.00053 0 0 0 1229.35 -185.249 -193.443 8.23112e+07 1.44586e+07 -8.352e+08 5421.49 2111.7 1908.9 0.05 
13159 1 -3.56453 0.491468 6.98553 0 0 0 851.346 -476.826 -107532 2.29228e+07 -4.27986e+06 1.44724e+09 -17123.4 -37183.5 -2413.16 0.05 
2817 1 -2.63512 0.48227 7.00438 0 0 0 185.563 -233.513 -1.24102 -1.53735 -826.097 -39.8079 5470.18 -160.668 9756.99 0.05 
10857 1 -2.38478 0.480156 7.00859 0 0 0 208.259 69.1922 -8.5075 -0.810239 -792.15 -39.8079 775.796 -375.938 4610.69 0.05 
1235 1 -2.11828 0.524602 7.00692 0 0 0 110.413 -98.2445 -0.135932 4.10838e+08 -1.11859e+08 -629131 1652.96 290.886 -4294.77 0.05 
13078 1 -1.40172 0.509463 7.00222 0 0 0 -1.33678 32.9333 -263.241 -0.0984199 -1436.27 -39.8079 638.305 4515.73 2594.61 0.05 
12409 1 -0.163606 0.481314 7.00725 0 0 0 0.00492049 -89.4907 -0.0196523 0 -810.558 -39.8079 -239.633 0.847826 -3950.1 0.05 
10883 1 -3.17126 0.532304 7.00858 0 0 0 3.90872 -205.841 -4.36566 6.95479e+06 -1.15638e+08 28814.9 1337.81 67.6681 -1985.4 0.05 
3048 1 -3.04697 0.569662 7.00355 0 0 0 2.25762 -312.294 -0.304413 28.4074 -5422.12 -39.8079 3755.63 52.6541 108.242 0.05 
3352 1 -1.51551 0.552391 7.00713 0 0 0 -1.73639 -238.834 0.315484 -0.119953 -3642.74 -39.8079 4449.81 -41.4124 -4446.61 0.05 
13715 1 -1.90688 0.599541 7.00408 0 0 0 -3.35525 -85.3791 -73.4386 -108514 -87435.6 -53975.6 3300.24 -2199.04 -3626.47 0.05 
13544 1 -1.42288 0.60861 7.00693 0 0 0 0.113371 -40.1167 -76.1386 -0.102036 -14098.6 -39.8079 7605.27 2167.8 6315.21 0.05 
13720 1 -3.03446 0.676228 7.00918 0 0 0 319.89 -342.193 -0.632589 22.6638 -94521.8 -39.8079 2873.36 6100.38 -4091 0.05 
10939 1 -2.74099 0.640899 6.95228 0 0 0 188.849 40.0004 -108481 -9.78979e+06 -1.3095e+07 3.6139e+08 3948.2 21462.4 604.292 0.05 
10007 1 -2.65317 0.638067 7.00413 0 0 0 419.021 -315.978 -101.148 -1.59665 -30935.5 -39.8079 5976.28 951.447 -8262.05 0.05 
11300 1 -2.10308 0.640684 7.00817 0 0 0 221.233 -146.898 -0.939428 2.93094e+08 -6.37529e+07 1.99723e+06 2827.57 4457.27 -6634.39 0.05 
8166 1 -1.99888 0.638064 7.00049 0 0 0 135.396 -218.179 -0.426264 -156187 480813 283188 5030.93 3998.28 314.864 0.05 
13670 1 -1.26 0.665664 7.00023 0 0 0 0.224886 -333.291 -0.406554 -0.0779096 -68523 -39.8079 1502.69 -0.408066 1134.51 0.05 
5082 1 -0.78297 0.648296 7.00553 0 0 0 -0.0708252 -313.799 -0.530737 0 -41243.6 -39.8079 2508.34 0.396106 2485.1 0.05 
12413 1 -0.277157 0.636949 7.00266 0 0 0 0.981673 -131.45 -247.418 1.10905e+06 -6.5705e+07 -1.3919e+06 -96.3686 5575.57 -198.353 0.05 
1098 1 -0.0776924 0.648364 7.00135 0 0 0 -0.280266 -342.422 -0.0682776 0 -41323.8 -39.8079 97.9772 0.0352206 -447.284 0.05 
11065 1 -0.676985 0.687258 7.00133 0 0 0 0.216659 -1.55582 -308.948 18216.3 -1.1198e+06 -114468 -4004.91 8.93828 -3.12618 0.05 
13682 1 -3.49813 0.778328 6.99851 0 0 0 222.224 -162.33 -367.233 8.26941e+06 -3.62641e+07 -2.8821e+06 -1478.51 8140.74 -1970.91 0.05 
13918 1 -3.39561 0.76786 7.00249 0 0 0 334.544 -130.395 -97.3402 -55515.8 -1.27623e+07 -898898 4764.36 5028.48 -7734.48 0.05 
8765 1 -2.64592 0.741537 7.00021 0 0 0 458.574 -291.002 0.209098 -1.57307 -901312 -39.8079 6231.04 8990.58 8896.36 0.05 
5525 1 -1.71778 0.759053 7.00239 0 0 0 263.284 -96.8017 -325.569 -1.34356e+06 -3.05749e+07 -1.72017e+06 1542.52 10893.9 417.015 0.05 
13280 1 -1.58237 0.751967 7.0024 0 0 0 239.308 -34.5251 -2.4709 3.73652e+08 -2.21179e+07 5.93279e+06 296.788 7281.04 -473.348 0.05 
1151 1 -1.13884 0.740813 7.006 0 0 0 -0.262748 -34.6426 -200.299 -587247 -7.28648e+06 -844613 6321.19 1935.96 -1321.14 0.05 
12807 1 -0.281138 0.747394 7.00112 0 0 0 1.32896 -306.571 -5.57662 -590254 -5.39791e+07 -836995 2905.24 -21.1207 1427.73 0.05 
7302 1 -3.51071 0.802557 7.00649 0 0 0 405.6 -3609.77 -299.559 6.52441e+06 4.7609e+07 -26613.3 1953.99 4797.94 -86.1623 0.05 
12715 1 -3.09169 0.793048 7.0052 0 0 0 531.459 -598.054 -2.08811 -580196 -1.04431e+07 299573 4915.92 7239.56 2376.23 0.05 
12133 1 -2.3532 0.805654 7.0089 0 0 0 160.01 -3460.87 1.77352 -210837 2.32899e+07 19793.2 -2468.01 4377.97 369.912 0.05 
12721 1 -0.945827 0.819564 7.00756 0 0 0 -0.325126 -2717.69 -195.634 -406545 -1.87132e+07 1.60829e+06 4939.14 6461.72 -741.409 0.05 
12971 1 -0.488415 0.820496 7.00706 0 0 0 0.443299 -851.188 -376.574 -125835 -3.31946e+07 -566067 5304.7 -1727.3 -646.129 0.05 
8282 1 -0.132561 0.800317 7.00935 0 0 0 0.0259048 -511.845 -0.159537 0 -1.1904e+07 -39.8079 5218.66 8.24512 -5141.88 0.05 
10884 1 -1.81841 -0.877529 7.01949 0 0 0 5.59003 -67142.9 -143.576 -2.79657e+07 2.35156e+09 -6.10834e+08 -21955.4 -955.571 -6349.53 0.05 
196 1 -3.09803 -0.830217 7.01095 0 0 0 -0.0408694 1917.67 -0.286264 7.74977e+06 2.66447e+08 4.35998e+06 -5270.96 7.09185 1973.02 0.05 
5328 1 -2.50445 -0.811747 7.04138 0 0 0 24.3867 525.274 -132.569 -1.11291 2.14646e+07 -39.8079 -6425.42 5100.7 6678.67 0.05 
2998 1 -2.28316 -0.809598 7.03411 0 0 0 6.17057 3302.47 -219.907 1.69494e+06 -2.20387e+06 -1.52712e+06 -6317.44 -867.802 1080.58 0.05 
8924 1 -2.1772 -0.828667 7.04028 0 0 0 1.11787 1034.57 0.207107 618284 5.30538e+07 315768 96.1976 -13.4593 5897.9 0.05 
3847 1 -1.89517 -0.800531 7.02184 0 0 0 0.190465 403.899 -38.3875 -6.83002e+06 3.64769e+08 -5.29597e+08 -2520.01 175.722 -2265.06 0.05 
11919 1 -1.71588 -0.831716 7.03997 0 0 0 144.638 948.084 -0.803146 1.02614e+06 6.27279e+07 -985685 4253.76 4586.97 6706.35 0.05 
7511 1 -1.59538 -0.818656 7.05581 0 0 0 38.6289 779.788 -0.212226 -0.138643 3.11976e+07 -39.8079 1099.78 831.522 -1462.11 0.05 
7214 1 -1.37425 -0.822124 7.04019 0 0 0 52.8846 774.078 0.11842 -0.0939615 3.78409e+07 -39.8079 1205.58 1709.53 -4107.52 0.05 
2483 1 -1.23788 -0.798717 7.02325 0 0 0 0.286724 383.825 -210.96 -9.93188e+06 5.33474e+08 -7.08653e+08 -5329.8 -18.311 1446.98 0.05 
4837 1 -3.57551 -0.777221 7.04039 0 0 0 2161.28 229.037 9.14994 1.97774e+07 3.20707e+07 3.25961e+06 -2913.57 7239.75 4660.65 0.05 
3315 1 -3.52095 -0.784866 7.04713 0 0 0 364.623 4460.15 4.2106 6.28502e+07 -7.6897e+07 -217939 -1055.07 -73.2495 218.736 0.05 
13799 1 -3.51057 -0.788567 7.01335 0 0 0 269.179 302.538 -20.4286 6.12052e+07 5.79749e+07 -2.08989e+06 -4066.56 4258.7 1445.4 0.05 
9812 1 -3.44951 -0.786904 7.04745 0 0 0 7729.59 4272.8 6.63714 -2.83805e+08 -8.73364e+07 1.42651e+06 -833.444 -833.368 8185 0.05 
3503 1 -3.40102 -0.767229 7.03289 0 0 0 76.0708 5276.53 4.25881 5.78237e+07 -6.81262e+07 -2.69075e+06 303.147 499.136 535.843 0.05 
10435 1 -3.40102 -0.78106 7.0207 0 0 0 150.676 261.754 -9.70193 5.29679e+07 6.96889e+07 -3.43739e+06 -1513.11 4300.76 -2429.85 0.05 
1442 1 -3.1747 -0.756951 7.02101 0 0 0 136.2 300.526 -2.34782 657683 3.71435e+06 -340204 -654.145 5257.1 -6516.34 0.05 
5196 1 -3.04836 -0.746228 7.02741 0 0 0 13.5891 77786.5 3.71327 -2.50266e+07 -1.70514e+09 2.00412e+07 -12542.8 27.6229 1450.13 0.05 
9943 1 -2.9314 -0.768138 7.01375 0 0 0 146.195 460.636 -558.967 2.54363e+07 -7.58538e+08 -407819 168.996 12832.2 -907.345 0.05 
3695 1 -2.81476 -0.782944 7.05215 0 0 0 227.698 322.603 -230.514 -919806 1.72667e+07 510958 233.797 -5410.87 -9375.84 0.05 
2986 1 -2.33865 -0.773822 7.02292 0 0 0 111.441 86.5055 -279.864 -3.60604e+06 3.15358e+07 641916 -2119.8 8942.3 -669.911 0.05 
10357 1 -2.11891 -0.751624 7.01963 0 0 0 178.593 344.997 -0.32575 -618285 3.3381e+06 -315847 683.824 4848.68 -5176.78 0.05 
9159 1 -1.67307 -0.732179 7.03895 0 0 0 288.398 148229 -2.83646 -1.74311e+07 -2.01042e+09 -3.5037e+07 -8097.33 6569.85 6399.86 0.05 
1959 1 -1.47884 -0.766276 7.02019 0 0 0 161.02 5422.04 -327.111 3.79513e+08 -5.73015e+07 9.5099e+06 -5669.57 5381.61 -1233.34 0.05 
5135 1 -1.13199 -0.747531 7.05939 0 0 0 11.3306 138.895 -3.939 1.30375e+06 4.26704e+07 -2.81633e+06 -495.262 -180.632 -325.509 0.05 
7950 1 -0.983722 -0.777086 7.02038 0 0 0 -0.825172 342.9 -1.89131 2.66915e+07 -6.01479e+08 250025 -1709.07 29.1963 -3058.86 0.05 
1945 1 -0.921283 -0.766105 7.05849 0 0 0 -3.50747 5338.36 5.52193 -942880 -6.24256e+07 715847 -3400.28 25.5018 715.121 0.05 