ITEM: TIMESTEP
300000
ITEM: NUMBER OF ATOMS
14052
ITEM: BOX BOUNDS ff pp ff
-3.75 3.75
-1 1
0 10
ITEM: ATOMS id type x y z ix iy iz vx vy vz fx fy fz omegax omegay omegaz radius 
13821 1 -1.59505 -0.510599 4.71665 0 0 0 0.275183 105.578 -171857 -0.138558 1470.68 -39.8079 4511.3 3783.37 -2558.63 0.05 
9412 1 -2.15414 -0.351634 4.70814 0 0 0 1.89464 14.6513 -171840 -0.451327 75.2709 -39.8079 -9278.38 13846.1 5701.27 0.05 
10206 1 -3.2246 0.651581 4.74877 0 0 0 223.626 -338.406 -170107 709.315 -45312.5 -39.8079 5136.14 -10974 -8981.36 0.05 
12795 1 -2.98546 -0.31888 4.79899 0 0 0 496.068 -76.1834 -168732 8.80547 42.8172 -39.8079 -10403.9 3184.62 3882.04 0.05 
13215 1 -0.227489 -0.102922 4.78618 0 0 0 -0.415757 615.338 -169069 0 0.499863 -39.8079 56.5582 22216.6 -6775.57 0.05 
7183 1 -0.750528 -0.360948 4.85813 0 0 0 -0.775491 310.248 -166448 0 88.4689 -39.8079 -12783.2 -9045.73 -4366.71 0.05 
4371 1 -1.71273 0.397866 4.84192 0 0 0 0.978136 -152.086 -167037 -0.173176 -169.457 -39.8079 17513.9 -2599.57 17.1685 0.05 
11397 1 -0.430415 0.754436 4.85083 0 0 0 0.381765 53.9722 -166689 0 -1.50414e+06 -39.8079 9019.46 16450.5 -5556.43 0.05 
12202 1 -1.69846 -0.493143 4.92111 0 0 0 179.822 82.5011 -164076 -0.168448 1027.46 -39.8079 9591.61 11592.2 3632.57 0.05 
10576 1 -3.26948 0.235206 4.92399 0 0 0 288.581 -171.664 -164748 1771.96 -9.90291 -39.8079 -34639.3 13625.1 1203.32 0.05 
13017 1 -1.48729 -0.793755 4.95429 0 0 0 0.909248 577.993 -163153 -0.114107 8.61512e+06 -39.8079 -24189.3 -7438.98 3021.17 0.05 
8448 1 -0.483476 -0.799076 5.04678 0 0 0 0.508839 344.988 -159922 0 1.11889e+07 -39.8079 -5624.8 -12451.1 599.922 0.05 
11202 1 -0.849914 0.251068 5.07187 0 0 0 123.447 238.648 -159224 0 -13.1764 -39.8079 -9912.06 27218.7 2176.75 0.05 
13635 1 -1.11897 0.67585 5.05819 0 0 0 1.12983 -248.885 -159669 0 -93423.7 -39.8079 23219.4 1106.72 3265.97 0.05 
11049 1 -2.64879 -0.218486 5.11402 0 0 0 133.741 -5.57849 -157302 -1.58246 7.27178 -39.8079 18.8217 -15907.8 3665.63 0.05 
9405 1 -1.49383 0.137121 5.12269 0 0 0 152.075 67.4589 -157450 -0.115429 -1.295 -39.8079 -6349.9 -4238.04 -3403.14 0.05 
12319 1 -0.0529336 0.161048 5.12824 0 0 0 -0.207636 85.6351 -158386 0 -2.27272 -39.8079 -4133.99 98548.8 -3973.59 0.05 
11924 1 -1.4842 -0.702411 5.16961 0 0 0 0.0425371 132709 -156145 -0.113487 219920 -39.8079 -713.479 -4098.91 8296.87 0.05 
13254 1 -1.96442 0.529261 5.16887 0 0 0 -0.150737 27.6423 -155765 -0.291484 -2185.26 -39.8079 -7367.64 -23625.4 3565.41 0.05 
12761 1 -0.541565 0.530339 5.15755 0 0 0 0.273628 -327.091 -156298 0 -2236.8 -39.8079 16792.2 -12762.6 -880.602 0.05 
11242 1 -1.16453 0.578666 5.20158 0 0 0 -0.0422323 -200.714 -155175 0 -6711.58 -39.8079 11388 -13157.8 4496.39 0.05 
8681 1 -0.510985 0.822084 5.23237 0 0 0 -0.925695 -754.99 -153783 0 -3.7757e+07 -39.8079 -50699.1 11980.1 1235.89 0.05 
12566 1 -1.89862 0.272928 5.25114 0 0 0 77.5525 -317.074 -153211 -0.252817 -19.3674 -39.8079 -16700 2013.15 5382.68 0.05 
12900 1 -3.48813 0.801378 5.25127 0 0 0 310.434 -521.965 -151839 790536 -1.25559e+07 -39.8079 -23920.6 40304.7 -3110.64 0.05 
12455 1 -2.35563 -0.308237 5.38165 0 0 0 1.67213 168.304 -148866 -0.750425 35.6617 -39.8079 7925.15 12355.5 -4376.61 0.05 
4032 1 -1.64334 0.244342 5.3785 0 0 0 0.993796 310.862 -148998 -0.151618 -11.6823 -39.8079 9126.22 20299.1 3259.07 0.05 
7677 1 -1.36622 0.536755 5.38488 0 0 0 -0.253296 -136.76 -149126 -0.0927062 -2572.16 -39.8079 -7104.88 7447.28 662.835 0.05 
8255 1 -3.29312 -0.428631 5.4379 0 0 0 175.975 68.4653 -146740 2958.89 296.141 -39.8079 -29492.7 -11449 4606.84 0.05 
10609 1 -1.77685 -0.3213 5.41574 0 0 0 1.51252 -165.219 -147349 -0.196574 44.6348 -39.8079 27672.1 -1753.56 3676.46 0.05 
11415 1 -0.877238 0.823707 5.39922 0 0 0 238.893 -908.961 -148344 0 -4.13808e+07 -39.8079 -96357.5 -10605.3 1405.99 0.05 
13781 1 -2.52475 -0.000984447 5.51727 0 0 0 31.3856 1.24119 -144580 -1.17376 3.89262e-07 -39.8079 5489.15 -18032.1 -657.816 0.05 
6492 1 -1.69784 0.758007 5.53932 0 0 0 110.525 -197.882 -142339 -0.168246 -1.74156e+06 -39.8079 16696.9 -12891.1 2389.16 0.05 
9165 1 -2.43666 -0.769367 5.59551 0 0 0 69.1415 58.272 -141097 -0.929752 2.81716e+06 -39.8079 -44682.4 13410.2 -3042.24 0.05 
12363 1 -3.15087 -0.414614 5.57476 0 0 0 355.596 239.596 -142172 178.062 229.122 -39.8079 8225.56 -3555.31 5490.18 0.05 
6487 1 -3.35779 -0.325127 5.59427 0 0 0 396.82 223.839 -141599 13803.1 47.6683 -39.8079 12836.7 -22377.9 -7704.65 0.05 
7639 1 -0.954666 -0.192828 5.57707 0 0 0 -1.0914 165.7 -141912 0 4.43036 -39.8079 15457.6 21674 1082.4 0.05 
13278 1 -2.04389 0.811794 5.62594 0 0 0 147.39 -1166.42 -140221 -0.348333 -2.15179e+07 -39.8079 -69159.6 7820.31 8625.9 0.05 
11852 1 -2.18507 -0.538208 5.66462 0 0 0 209.781 264.784 -138928 -0.486575 2655.51 -39.8079 11897.3 19456.2 984.161 0.05 
3777 1 -2.73999 -0.507884 5.69566 0 0 0 477.102 -46658.1 -137498 -1.79659 1389.88 -39.8079 2511.96 -4716.12 -2155.11 0.05 
10766 1 -2.77605 0.0234008 5.66221 0 0 0 274.323 -645.343 -139270 -1.77159 -0.00525969 -39.8079 -41199.7 -4787.51 941.861 0.05 
12207 1 -0.638595 0.395616 5.67763 0 0 0 -0.261889 -17318 -139063 0 -162.789 -39.8079 -20262.1 -18969.9 601.985 0.05 
11713 1 -2.15326 -0.250813 5.70867 0 0 0 187.819 -811.193 -137639 -0.450377 13.1165 -39.8079 12852.1 -8865.71 6541.5 0.05 
9454 1 -2.46717 -0.121455 5.71198 0 0 0 23.8613 148.175 -137789 -1.00834 0.860218 -39.8079 8704.99 5585.32 2765.96 0.05 
3037 1 -0.656029 0.030692 5.77897 0 0 0 51.9572 -3.79083 -135437 0 -0.0119184 -39.8079 -3964.81 -4136.05 3439.81 0.05 
9289 1 -0.14285 0.318764 5.79331 0 0 0 1.1644 -131.287 -134108 0 -42.7321 -39.8079 -3624.17 -6460.88 4435.75 0.05 
10622 1 -2.53148 -0.515523 5.83344 0 0 0 149.526 3.09232 -132670 -1.1945 1630.52 -39.8079 -19546.9 30099.5 -1973.68 0.05 
9291 1 -0.582914 -0.163982 5.86423 0 0 0 0.867404 -55.9492 -132285 0 2.42508 -39.8079 9808.39 -21308.2 -682.456 0.05 
8417 1 -2.52965 -0.772854 5.92557 0 0 0 9.37304 66460.9 -129879 -1.18882 3.28086e+06 -39.8079 7807.19 -6700.52 1209.71 0.05 
1298 1 -2.31997 -0.554389 5.91897 0 0 0 79.3297 274.918 -130642 -0.68382 3811.5 -39.8079 5833.24 8835.42 -5717.94 0.05 
6601 1 -3.06743 -0.24071 5.91678 0 0 0 222.059 156.804 -130485 40.8464 10.9422 -39.8079 1511.83 7088.19 3380.35 0.05 
11208 1 -0.922922 0.318283 6.01656 0 0 0 -0.489781 -313.998 -127289 0 -42.3806 -39.8079 -18203.6 16205.6 -2992.52 0.05 
10028 1 -3.44686 0.695931 6.0013 0 0 0 386.576 -271.428 -126502 182751 -177257 -39.8079 44558.4 21410.1 2807.04 0.05 
11214 1 -1.90948 0.813134 6.04018 0 0 0 194.512 -938.75 -125393 -0.258745 -2.31121e+07 -39.8079 -70915.1 587.244 -4847.1 0.05 
2112 1 -1.37464 -0.39679 6.09139 0 0 0 111.049 -54.5445 -124158 -0.0940234 166.232 -39.8079 1233.91 1872.77 1305.06 0.05 
206 1 -2.2912 -0.760862 6.1231 0 0 0 83.4541 65.4737 -122356 -0.634935 1.96107e+06 -39.8079 -18401.5 -18084.4 1061.65 0.05 
13478 1 -2.79148 0.407954 6.16008 0 0 0 449.637 -45.6357 -121456 -1.72096 -203.099 -39.8079 -10129.5 -26863.5 2476.92 0.05 
8660 1 -2.89933 -0.78247 6.19787 0 0 0 534.999 440.057 -119849 0.318232 5.05674e+06 -39.8079 14477.5 -14760.4 -8301.81 0.05 
12559 1 -2.66827 -0.772384 6.20911 0 0 0 32464 40.2122 -119774 -1.64401 3.21364e+06 -39.8079 -43723.8 -25383.5 -13862.8 0.05 
9911 1 -2.30453 -0.19109 6.19314 0 0 0 90.3066 -152.24 -121287 -0.657066 4.27906 -39.8079 -9458.35 6156.14 792.257 0.05 
4730 1 -2.35023 0.572324 6.17409 0 0 0 334.723 -235.055 -121644 -0.739884 -5772.64 -39.8079 20948.1 -7961.38 -4366.16 0.05 
4350 1 -1.93993 -0.59634 6.26694 0 0 0 93.4383 630.465 -117650 -0.276293 10335.2 -39.8079 -12400.1 -42919.9 4136.68 0.05 
13047 1 -1.47141 -0.505056 6.2511 0 0 0 2.72496 121.488 -118930 -0.110973 1310.83 -39.8079 -5261.26 -2525.86 1985.84 0.05 
7680 1 -0.230753 0.660132 6.26822 0 0 0 -0.0890154 3.46717 -117826 0 -58130.6 -39.8079 -7670.81 -7350.76 -6526.56 0.05 
3659 1 -1.15945 -0.611726 6.28695 0 0 0 5.16334 430.718 -117801 0 15278.2 -39.8079 2733.13 11103 -565.496 0.05 
9947 1 -0.484499 -0.206627 6.27854 0 0 0 0.987894 -342.507 -117774 0 5.80504 -39.8079 -10103.5 12433.8 10082.9 0.05 
12040 1 -3.19359 0.0949408 6.36356 0 0 0 471.713 -356.738 -114849 390.629 -0.38556 -39.8079 15089.1 17082 -86.3417 0.05 
11268 1 -1.93232 -0.197634 6.38925 0 0 0 1.76208 -81.2142 -114222 -0.271776 4.87296 -39.8079 29864.8 -3618.73 -685.673 0.05 
7591 1 -0.677 0.714944 6.40712 0 0 0 -0.00815119 68.5341 -113236 0 -338295 -39.8079 14341 -7770.88 7549.9 0.05 
12192 1 -0.206449 0.180052 6.44979 0 0 0 2.37786 -93.6073 -112466 0 -3.41699 -39.8079 19408.4 -524.192 3250.39 0.05 
13500 1 -0.507374 0.87375 6.47248 0 0 0 1.06112 118882 -111014 0 -1.16644e+09 -39.8079 38161.3 9002.19 3337.92 0.05 
8359 1 -2.18611 0.0580774 6.52092 0 0 0 77.7597 -401.521 -109586 -0.48782 -0.082938 -39.8079 -5819.2 -7486.86 -11905.4 0.05 
10939 1 -2.74023 0.641059 6.51836 0 0 0 188.799 39.9002 -108479 -1.79675 -33621.9 -39.8079 3906.56 21481.6 603.853 0.05 
13249 1 -1.23693 -0.754648 6.55006 0 0 0 199.43 541.9 -107671 0 1.51719e+06 -39.8079 -27288.1 23601.4 -625.568 0.05 
9169 1 -1.88562 -0.586048 6.54166 0 0 0 34.9853 72468.5 -109754 -0.245936 8020.66 -39.8079 18361.9 -32131.1 19347.1 0.05 
8437 1 -3.42026 0.255367 6.55407 0 0 0 585.004 38137.3 -108235 78727.6 -14.2226 -39.8079 19327.7 -34445.8 -4832.02 0.05 
13159 1 -3.56108 0.489557 6.55606 0 0 0 874.08 -477.739 -107355 2.07149e+07 -955.726 -39.8079 -17199.1 -37408.3 -2407.07 0.05 
12032 1 -2.87896 -0.333871 6.63547 0 0 0 290.307 -84.2955 -104733 -0.438457 55.4023 -39.8079 4790.94 -28224.8 3147.42 0.05 
13964 1 -0.207469 -0.238741 6.64958 0 0 0 -1.73267 -435.101 -104936 0 10.5595 -39.8079 -4294.31 -12211.4 -775.338 0.05 
6590 1 -3.56264 -0.132305 6.64771 0 0 0 697.593 131.805 -105312 2.25095e+07 1.14657 -39.8079 6267.37 -36918.6 8012.27 0.05 
9303 1 -0.349094 -0.120595 6.6476 0 0 0 0.589332 122.437 -105137 0 0.840127 -39.8079 -13928.1 -5148.38 933.195 0.05 
1859 1 -2.70033 0.266078 6.65211 0 0 0 110.629 -566.061 -104579 -1.73219 -17.1799 -39.8079 -5784.6 4348.33 5790.38 0.05 
6890 1 -2.16819 0.311523 6.68933 0 0 0 130.388 247.473 -103525 -0.466952 -37.7336 -39.8079 2141.05 14005.6 -3014.62 0.05 
12315 1 -3.42045 0.441519 6.64591 0 0 0 198.411 122.554 -105651 79162 -376.358 -39.8079 29274.3 -39488.5 7802.64 0.05 
4674 1 -1.60089 0.565282 6.67793 0 0 0 169.282 83.8421 -103803 -0.140061 -4895.06 -39.8079 24967.3 -9431.76 9902.63 0.05 
271 1 -3.47494 -0.161173 6.71031 0 0 0 265.972 194.947 -103281 483516 2.27905 -39.8079 -6456.94 40297.8 -4579.49 0.05 
13236 1 -3.1399 0.104931 6.70485 0 0 0 271.393 -26401 -102743 146.303 -0.532159 -39.8079 1781.1 -1637.86 4576.29 0.05 
11483 1 -1.88842 -0.757049 6.75294 0 0 0 4.93022 4885.73 -101314 -0.2474 1.67406e+06 -39.8079 65648.3 -5559.14 -2364.46 0.05 
7042 1 -1.69161 0.523062 6.78311 0 0 0 223.827 -12654.7 -100089 -0.166235 -1912.99 -39.8079 -34206.3 -5516.62 3736.18 0.05 
3372 1 -1.59228 -0.0180203 6.84455 0 0 0 4.82462 104.867 -98057.9 -0.137853 0.00239604 -39.8079 -23909.3 -10681.9 -2635.59 0.05 
13162 1 -0.414372 0.0412819 6.8106 0 0 0 109.41 261.21 -98328.8 0 -0.0292452 -39.8079 336.558 -9142.93 2716.89 0.05 
10345 1 -3.09234 -0.744341 6.87222 0 0 0 128.2 5018.58 -96029.9 63.2426 1.00524e+06 -39.8079 52479.7 4063.3 -1435.06 0.05 
8516 1 -0.701549 0.266423 6.85878 0 0 0 1.42313 -60.5683 -97581.6 0 -17.2842 -39.8079 2073.26 9071.94 8287.91 0.05 
3963 1 -0.262191 0.566456 6.85305 0 0 0 2.44269 221.961 -97608.4 0 -5030.56 -39.8079 -5048.29 -19173.1 -6525.2 0.05 
10960 1 -1.22053 0.802662 6.85771 0 0 0 595.398 -3050.74 -97761.7 0 -1.3397e+07 -39.8079 -90095.7 -10669.7 9763.8 0.05 
13274 1 -1.34381 -0.797419 6.94398 0 0 0 153.741 188.841 -94381.9 -0.0893112 1.03069e+07 -39.8079 2351.61 -12550.2 -462.172 0.05 
13505 1 -0.1645 -0.646197 6.91421 0 0 0 153.17 69734.9 -96226 0 38854 -39.8079 23766.4 5473.26 -5383.39 0.05 
13612 1 -1.51871 -0.176598 6.9111 0 0 0 62.0346 -322.345 -95748.3 -0.120638 3.17944 -39.8079 -15597.4 371.408 3250.97 0.05 
4198 1 -1.48595 -0.0456113 6.90155 0 0 0 89.7897 67.2626 -96374.1 -0.113838 0.039608 -39.8079 -21743.3 -3519.48 1061.91 0.05 
11890 1 -2.8449 0.139821 6.89965 0 0 0 451.004 -143.809 -96205.9 -1.21784 -1.38454 -39.8079 22358.7 -25560.3 3189.61 0.05 
10867 1 -3.07223 0.79584 6.903 0 0 0 400.747 -473.585 -95278.5 44.4482 -9.53645e+06 -39.8079 -14545.6 26999.2 991.261 0.05 
14013 1 -3.30285 -0.827342 7.00185 0 0 0 1.12215 1529.47 0.263769 1.41439e+06 4.52534e+07 471874 -927.106 4.71072 3708.45 0.05 
12327 1 -1.10087 -0.818482 7.00053 0 0 0 0.138652 680.916 0.837695 539053 2.87556e+07 495460 -5669.15 31.1318 3912.98 0.05 
6695 1 -0.781352 -0.82355 7.00086 0 0 0 -0.158495 978.986 -1.94113 0 4.10146e+07 -39.8079 -1105.73 -1.7622 291.429 0.05 
13221 1 -0.460273 -0.825872 6.99882 0 0 0 0.996351 967.546 -270.597 254112 4.01513e+07 1.55059e+06 -9467.09 -3233.76 -572.554 0.05 
10082 1 -0.074728 -0.814209 7.00171 0 0 0 6.40959 -56269.4 -30.485 -1.96319e+07 4.06811e+08 9.38987e+06 -61896.3 -1247.91 -33944.6 0.05 
13855 1 -1.76223 -0.756107 7.00278 0 0 0 42.7574 175.896 -0.419074 -4.43161e+06 4.30304e+08 1.55585e+06 -702.158 545.017 -2894.97 0.05 
12243 1 -0.704011 -0.750435 7.00116 0 0 0 72.871 301.046 0.138452 0 1.27961e+06 -39.8079 -5547.34 337.431 -7846.79 0.05 
11028 1 -0.585257 -0.765735 7.00049 0 0 0 -0.984516 240.396 -0.455981 0 2.40946e+06 -39.8079 -3918.86 -7.42684 5029.43 0.05 
5466 1 -0.115572 -0.782252 7.00627 0 0 0 -5.52581 278.043 -130.116 1.96319e+07 -3.7732e+08 -9.38995e+06 -10900 -3259.19 -7913.97 0.05 
13426 1 -3.28499 -0.734091 7.00829 0 0 0 231.527 172.785 0.766198 -1.40823e+06 6.39293e+06 -471953 -1213.54 3586.27 50.021 0.05 
9896 1 -3.06612 -0.703153 7.0101 0 0 0 310.394 210.177 -235.105 5.90425e+06 3.89e+08 870202 -554.506 -953.928 -3718.35 0.05 
11386 1 -2.48117 -0.717006 7.00634 0 0 0 283.658 260.26 -189.377 -1.04651 363786 -39.8079 1642.02 7663.69 -797.809 0.05 
11448 1 -3.35203 -0.65918 7.00548 0 0 0 340.232 0.524422 -0.220048 11920.8 56523 -39.8079 0.00307506 769.836 372.976 0.05 
9043 1 -2.27716 -0.662274 7.00114 0 0 0 336.617 0.589591 -4.94754 -0.612553 61933.5 -39.8079 234.082 1460.24 -132.83 0.05 
9387 1 -1.88526 -0.634721 7.00066 0 0 0 363.442 178.89 -204.572 -641940 5.92174e+07 1.08251e+06 -8359.82 -3077.22 -2455.69 0.05 
13214 1 -1.70223 -0.64108 7.00818 0 0 0 339.051 266.243 -16.8531 -6.50415e+06 1.53819e+07 -4.19325e+08 -3339.31 747.375 6064.01 0.05 
13698 1 -0.545373 -0.635005 7.00076 0 0 0 361.861 228.633 -4.90779 -1.13721e+06 6.83005e+07 2.81866e+06 -3965.63 2449.18 2520.02 0.05 
3890 1 -3.45525 -0.604567 7.00435 0 0 0 444.566 0.120678 -0.0222971 242094 12714.3 -39.8079 1.2815 3947.3 792.38 0.05 
14036 1 -2.37269 -0.627641 7.0005 0 0 0 394.27 174.669 -77.2311 -0.784828 23262.8 -39.8079 -5492.48 5111.42 -5038.93 0.05 
7434 1 -1.8235 -0.59254 7.0084 0 0 0 25.6712 10253.9 -4.64363 3.10893e+06 -1.36093e+08 625283 6768.36 572.259 365.931 0.05 
13329 1 -1.32924 -0.595347 7.00407 0 0 0 430.604 256.336 -0.00464309 -0.0871874 10082.8 -39.8079 -1941.81 4204.42 -4716.37 0.05 
5912 1 -0.356514 -0.599472 7.0015 0 0 0 424.365 384.61 -1.14096 -379372 5.54448e+07 2.90977e+06 -6647.34 4426.06 3439.23 0.05 
11316 1 -2.81182 -0.558059 7.00166 0 0 0 289.057 192.364 -3.9798 -4.79252e+06 6.57574e+07 163967 -3601.93 4610.37 -5387.93 0.05 
11479 1 -2.45859 -0.535276 7.00314 0 0 0 299.364 220.075 -309.647 -0.985611 2490.28 -39.8079 -3219.48 -6393.67 6509.08 0.05 
12594 1 -0.814419 -0.549732 7.00679 0 0 0 299.21 191.45 -1.64335 3.70951e+07 9.59161e+08 -1.8379e+06 -88.1211 4237.97 3093.56 0.05 
12444 1 -0.77889 -0.520033 7.00727 0 0 0 6.70844 135127 -164.686 -1.51486e+07 -1.74115e+09 3.46066e+06 11129.2 -2209.97 -14273.4 0.05 
10556 1 -0.709204 -0.540684 7.00975 0 0 0 311.101 283.55 -69.0466 -2.32634e+07 7.86174e+08 -5.11612e+08 -2539.15 3499.58 -1279.51 0.05 
9307 1 -0.259985 -0.534006 7.00188 0 0 0 291.105 479.221 1.16767 0 2422.18 -39.8079 -3830.5 4721.73 1936.9 0.05 
12205 1 -3.12045 -0.503665 7.00375 0 0 0 228.374 80.6984 -77.5327 -554178 -136890 -921859 -4945.97 2279.47 4668.38 0.05 
7966 1 -2.02218 -0.519551 7.00054 0 0 0 271.21 261.384 -1.14494 -0.331546 1775.34 -39.8079 -5905.43 4623.78 3846.23 0.05 
10984 1 -1.5031 -0.50586 7.00133 0 0 0 247.249 161.858 -391.456 -13030.8 253754 -688340 -3863.66 4327.85 488.688 0.05 
13525 1 -1.37208 -0.49078 7.00918 0 0 0 218.382 325.112 -54.4063 -1.58193e+06 -691999 -194800 -3494.49 1944.46 4124.28 0.05 
5517 1 -3.44871 -0.433795 6.99997 0 0 0 6991.94 -3.55357 -1.66298 -4.94964e+07 1.47761e+06 1.53668e+06 23.7968 -4746.8 5236.24 0.05 
6295 1 -3.22296 -0.472833 7.00725 0 0 0 126.663 252.344 -203.858 1.51383e+06 1.13528e+08 3.21767e+06 -6921.93 407.658 5729.21 0.05 
13644 1 -2.15789 -0.467693 7.0005 0 0 0 110.888 0.565437 -157.235 -0.455435 620.242 -39.8079 5712.16 -318.792 4093.59 0.05 
7418 1 -1.68383 -0.450329 6.9984 0 0 0 0.890269 278.433 -264.707 -0.163764 444.385 -39.8079 181.889 -2164.34 1394.11 0.05 
1680 1 -1.26734 -0.422623 7.0088 0 0 0 10.0704 77166.5 -240.891 6.13701e+06 -8.32467e+08 9.84169e+06 -40067.2 3486.15 -10007.6 0.05 
3483 1 -0.639392 -0.471388 7.0094 0 0 0 131.689 131.396 -1.65746 458965 581792 -1.42448e+06 -4485.98 1687.97 2242.24 0.05 
6072 1 -3.06717 -0.41597 7.00565 0 0 0 -1.70769 -7.25072 -104.257 -1.58084e+07 5.66e+08 -2.01438e+07 -3778.91 -4313.13 -505.867 0.05 
11339 1 -2.0738 -0.372155 7.00515 0 0 0 3.30275 192.495 -116.954 -0.373177 107.571 -39.8079 -5258.1 -4623.39 4953.09 0.05 
12492 1 -1.42302 -0.403475 7.00807 0 0 0 0.86149 283.675 -290.743 1.92135e+07 -6.93875e+06 -4.95804e+08 -3230.71 4892.07 4901.18 0.05 
2539 1 -1.1615 -0.407865 7.0089 0 0 0 0 0.00149911 -0.0002943 0 202.774 -39.8079 0 0 0 0.05 
6261 1 -0.775939 -0.372339 6.99765 0 0 0 0.305139 1.68452 -309.061 0 107.92 -39.8079 -1149.23 3748.88 41.1164 0.05 
11157 1 -0.354935 -0.411535 7.00165 0 0 0 -0.363799 253.589 -0.0298261 0 216.676 -39.8079 -2619.93 -3.18921 5536.32 0.05 
12860 1 -0.240016 -0.408469 7.00328 0 0 0 -1.80244 349.985 0.178976 4.78244e+06 1.19895e+08 781364 -2586.44 -9.59061 -2884.88 0.05 
3298 1 -2.40093 -0.351058 7.00613 0 0 0 65.2208 251.122 -207.485 -0.845607 74.5237 -39.8079 -7407.33 4969.75 -8391.18 0.05 
13080 1 -1.62979 -0.326294 7.00379 0 0 0 197.143 174.826 -0.755879 -0.147805 48.6339 -39.8079 -1215.14 1294.46 -11191.4 0.05 
11927 1 -1.26368 -0.327582 7.00107 0 0 0 0.257492 -332.979 -0.619236 2.64866e+06 3.12075e+08 -9.81949e+06 1473.09 -0.0210235 583.111 0.05 
11626 1 -3.32986 -0.292568 7.0098 0 0 0 303.048 -0.212911 -265.272 6906.57 27.2284 -39.8079 4436.21 -2902.13 -4277.21 0.05 
246 1 -1.97619 -0.306844 7.00776 0 0 0 260.68 227.106 -0.510843 -0.299147 34.8177 -39.8079 -4401.5 1334.13 -10537.5 0.05 
13413 1 -0.751363 -0.272264 7.00833 0 0 0 1.75088 5.5754 -73.2158 329272 2.31245e+06 -57885.4 3054.47 70.482 18.2909 0.05 
13443 1 -2.62398 -0.235076 7.00491 0 0 0 313.393 306.637 -303.102 -1.4999 9.87954 -39.8079 -9285.9 -1777.63 1566.2 0.05 
4622 1 -1.82086 -0.212195 7.01013 0 0 0 247.524 -333.481 -1.49575 -0.214925 6.45732 -39.8079 1618.76 921.204 5554.22 0.05 
11055 1 -1.58636 -0.223613 7.00936 0 0 0 284.437 77.1732 -126 -0.13636 8.00192 -39.8079 -3994.61 5233.94 1669.15 0.05 
9031 1 -1.07493 -0.255676 7.00495 0 0 0 -0.349827 0.558178 -0.133473 0 14.3006 -39.8079 -36.4954 -0.289483 8.36268 0.05 
12344 1 -0.104788 -0.227441 6.9784 0 0 0 0.931249 -381.155 -92574 -1.81989e+07 -3.34237e+06 9.95394e+08 -1565.43 -4989.24 12871 0.05 
10863 1 -3.51708 -0.176216 7.00505 0 0 0 4485.49 -4.70063 -473.473 -2.85361e+07 -2.16606e+06 -1.2099e+06 -6582.32 964.163 5528.3 0.05 
11894 1 -3.17333 -0.176264 7.00155 0 0 0 96.3476 4.78286 -2.79884 134425 1.54361e+06 -959645 -105.41 671.412 3952.94 0.05 
7242 1 -1.01376 -0.157909 7.00631 0 0 0 0.575333 0.379949 -184.543 0 2.1184 -39.8079 3269.03 5355.09 3.02773 0.05 
12122 1 -0.561735 -0.185992 6.99844 0 0 0 -0.520522 -278.309 -438.832 2.52628e+06 -1.29583e+08 1.50558e+06 1550.13 2273.49 -4463.25 0.05 
13658 1 -0.159218 -0.166755 6.99913 0 0 0 -0.89056 -113.612 -301.695 5.10076e+06 -9.95368e+06 -4.69418e+08 3966 -3502.13 -4763.34 0.05 
12127 1 -2.82774 -0.110298 7.00626 0 0 0 0.14902 -17.5509 -51.8905 -1.45121 0.626025 -39.8079 -1219.28 2152.68 -731.6 0.05 
6839 1 -2.93605 -0.0589398 7.0006 0 0 0 91.1857 -7.34026 -0.645179 2.56668 0.0867842 -39.8079 -34.7173 3569.02 -2026.01 0.05 
9952 1 -1.275 -0.0733802 7.0053 0 0 0 83.8854 -335.815 -0.280674 -0.0798111 0.171034 -39.8079 779.265 3131.86 -3371.85 0.05 
13065 1 -0.446766 -0.0707296 7.00084 0 0 0 58.9242 -123.066 -0.664665 -3.62061e+06 -1.46502e+08 -4.71313e+06 1449.78 2332 2850.61 0.05 
11753 1 -2.68341 -0.00831622 7.0044 0 0 0 155.666 330.612 -132.807 421723 -533672 589179 -144.631 1675.58 861.819 0.05 
13038 1 -2.38341 -0.0450304 7.01026 0 0 0 161.594 206.835 -16.6701 -7.07307e+06 1.44433e+07 -4.66881e+08 -2021.98 5580.84 -8030.64 0.05 
9721 1 -2.21273 -0.0449406 7.00071 0 0 0 122.864 -3.60597 0.173435 -0.520903 0.0378611 -39.8079 90.524 4807.09 -1539.58 0.05 
11177 1 -1.65841 -0.0168034 7.00155 0 0 0 142.693 -18.6722 -198.71 -905263 -319982 -290617 1040.29 11919.7 112.711 0.05 
10773 1 -0.273205 -0.0414797 7.00092 0 0 0 0.316257 218.873 -136.995 0 0.0296729 -39.8079 4206.56 3049.99 -5768.92 0.05 
9438 1 -3.50979 0.0219081 7.00379 0 0 0 4764.52 -6.91382 0.174584 -6.69071e+07 -9.77656e+07 -4.24977e+06 236.251 887.597 -2039.21 0.05 
1157 1 -1.05296 0.0220057 7.00782 0 0 0 115.779 0.284654 -0.332886 0 -0.00437086 -39.8079 -34.9352 4161.11 2477.71 0.05 
2032 1 -0.422479 0.0497839 7.00049 0 0 0 -0.126087 -225.563 -335.984 2.97337e+06 -2.04647e+08 8.01891e+06 4635.46 1244.26 -146.859 0.05 
5587 1 -2.27459 0.0582505 7.00843 0 0 0 49.1615 0.161683 -94.3528 -0.608546 -0.0837005 -39.8079 -74.9332 5912.01 -1512.14 0.05 
4228 1 -2.03812 0.0884559 7.00416 0 0 0 119.28 26.8168 -2.47715 558027 -1.63661e+08 6.28176e+06 -429.865 4529 284.286 0.05 
5683 1 -1.9025 0.0571855 7.00453 0 0 0 26.4034 -107.771 -0.424926 1.35466e+06 -137636 6582.69 844.85 959.569 -5199.38 0.05 
9104 1 -0.714055 0.0637502 7.01005 0 0 0 91.2542 3.83877 -195.271 -4741.8 -3311.98 1275.49 3100.27 8663.74 -2688.35 0.05 
11421 1 -3.5121 0.154665 7.0034 0 0 0 4645.18 -122.135 -0.277836 -4.11856e+07 689094 -546685 3999.42 163.113 3795.05 0.05 
1592 1 -1.43878 0.119045 7.0072 0 0 0 175.726 235.125 -226.121 -1.72246e+06 -6.04182e+07 -587235 -3483.06 90.9203 5810.03 0.05 
8636 1 -0.449117 0.1577 7.00616 0 0 0 120.445 -413.901 -0.683894 0 -2.10847 -39.8079 4452.07 4363.29 3557.15 0.05 
3720 1 -0.322033 0.115047 7.00093 0 0 0 143.364 313.586 -1.43708 0 -0.718905 -39.8079 -3241.05 5521.36 1523.92 0.05 
11518 1 -3.24938 0.185456 7.00214 0 0 0 3.89245 -225.388 -229.923 1165.88 -3.8185 -39.8079 -2998.39 -2600.31 5901.16 0.05 
8568 1 -3.0218 0.188473 7.00797 0 0 0 1.94801 -311.359 -0.183374 17.9521 -4.05954 -39.8079 3638.85 36.8077 3548.09 0.05 
11832 1 -2.59855 0.185838 7.00212 0 0 0 3.51825 51.585 -4.90525 3.82257e+06 2.17844e+08 8.57127e+06 -1798.83 34.7842 2893.24 0.05 
11037 1 -1.58265 0.169703 7.00172 0 0 0 73.8672 -0.0244465 -118.621 -0.135433 -2.7463 -39.8079 -1007.31 3774.08 1809.56 0.05 
5472 1 -1.06038 0.185042 7.00206 0 0 0 -0.480115 0.438005 -0.479872 0 -3.78636 -39.8079 -36.5086 0.40685 1.12942 0.05 
13760 1 -3.57807 0.253658 7.00083 0 0 0 1511.15 -183.328 -167.994 5.34649e+07 1.10508e+07 -6.34499e+08 3568.08 4621.09 59.2736 0.05 
10467 1 -3.39085 0.224687 7.00623 0 0 0 1.45555 -84.9611 0.553579 1.10271e+07 213291 -753488 894.674 -8.92248 -3680.26 0.05 
3741 1 -1.25446 0.223576 7.0102 0 0 0 0.444528 -331.801 -0.221755 -0.0772225 -7.99651 -39.8079 -7.20369 -1.50365 1997.48 0.05 
13514 1 -0.206694 0.248808 7.01019 0 0 0 -0.245206 -108.999 -235.454 0 -12.6554 -39.8079 8851.67 1537.2 1762.64 0.05 
12661 1 -3.54086 0.282347 6.97932 0 0 0 607.565 -44.129 -93284.8 -8.01224e+06 6.30013e+06 1.09085e+09 16658.9 -7882.84 -3031.95 0.05 
6836 1 -0.737039 0.275095 7.00315 0 0 0 0.0883301 4.83083 -288.376 -540971 392621 -433750 1039.58 4865.29 -21.47 0.05 
5181 1 -3.31095 0.344704 7.00141 0 0 0 340.179 -308.945 -1.13242 4428.01 -66.7738 -39.8079 3858.65 5791.69 -7304.2 0.05 
5457 1 -2.82959 0.32291 7.00467 0 0 0 219.112 0.624089 -65.9053 -1.43001 -45.8865 -39.8079 -2818.02 6535.62 -4939.71 0.05 
4861 1 -2.72296 0.353097 7.00947 0 0 0 391.007 -163.701 -189.9 -255738 -95976.1 -356278 4509.07 3028.18 -10360.5 0.05 
9264 1 -2.58728 0.318309 7.01011 0 0 0 195.309 -97.3733 -1.00112 -1.37569 -42.3993 -39.8079 2085.51 5294.97 -196.299 0.05 
7879 1 -2.47211 0.352809 7.0101 0 0 0 383.677 63.2494 -1.19802 -1.02165 -76.8171 -39.8079 2402.55 5587.35 -4912.58 0.05 
13743 1 -2.13792 0.356156 7.00037 0 0 0 351.423 -280.236 -241.242 1.75455e+08 -8.19313e+08 2.71464e+07 8663.48 2136.19 -7086.14 0.05 
12717 1 -1.96434 0.366061 7.00124 0 0 0 246.089 -113.872 -0.630219 -214904 146121 -233295 2658.49 314.367 -2056.57 0.05 
5648 1 -1.35464 0.329359 7.00356 0 0 0 -0.0620524 -36.609 -0.799365 -92024.7 131738 -17760.7 3937.91 -13.8892 -8076.02 0.05 
13166 1 -1.49215 0.41992 7.00298 0 0 0 69698.5 246.059 -114.433 -1.50973e+09 -1.02611e+08 -6.3363e+08 -1294.5 -69567.5 -32938.1 0.05 
11062 1 -0.771382 0.402335 7.00205 0 0 0 0.699002 3.07602 -0.887225 0 -183.572 -39.8079 -144.685 -1.31459 215.002 0.05 
12140 1 -0.470411 0.378452 7.00282 0 0 0 0.000543864 -290.737 -142.392 0 -120.136 -39.8079 10358.1 -2577.21 -2300.36 0.05 
12270 1 -0.206458 0.380345 7.01017 0 0 0 -0.264785 -105.306 -97.1213 0 -124.205 -39.8079 7066.34 3047.51 1720.32 0.05 
4450 1 -3.09507 0.433595 7.00507 0 0 0 326.34 -317.711 -1.10595 5.63994e+06 -9.91929e+07 -688186 2997.14 -44.6426 151.662 0.05 
13401 1 -1.49066 0.444167 7.00559 0 0 0 150.264 -384.04 -352.783 5.47306e+08 -5.3955e+07 -6.27799e+08 12244.9 4130.28 -478.608 0.05 
9422 1 -1.45474 0.434684 6.96148 0 0 0 90.1915 -279.902 -93928.5 4.28781e+08 9.61364e+06 1.35634e+09 5416.93 -927.023 5847.79 0.05 
13997 1 -1.31737 0.435036 7.0015 0 0 0 0.291073 -246.317 -0.197879 -0.0855023 -333.449 -39.8079 4166.26 15.5116 -8390.29 0.05 
12657 1 -1.2116 0.456515 7.00114 0 0 0 0.149443 -231.994 -0.112408 0 -499.964 -39.8079 996.856 -2.47231 6286.94 0.05 
13330 1 -0.0551518 0.426055 7.00397 0 0 0 1.51406 -321.582 -0.853386 893917 675298 -869392 -287.193 11.5002 3003.98 0.05 
12618 1 -3.57563 0.48303 6.99926 0 0 0 1278.42 -182.329 -328.608 4.03773e+07 1.4408e+06 -880477 4917.95 3125.45 2041.22 0.05 
2817 1 -2.63438 0.481336 7.00438 0 0 0 185.563 -233.514 -1.24106 -1.53487 -810.906 -39.8079 5470.18 -160.668 9756.99 0.05 
10857 1 -2.38394 0.480433 7.00855 0 0 0 208.259 69.1915 -8.50754 -0.808458 -796.508 -39.8079 775.796 -375.938 4610.69 0.05 
1235 1 -2.11729 0.523544 7.0069 0 0 0 290.122 -455.897 -4.37584 -0.413249 -1932.8 -39.8079 4511.19 763.935 -5946.09 0.05 
13078 1 -1.40172 0.509595 7.00113 0 0 0 -1.52524 32.8591 -336.838 -2.10639e+06 -2.97009e+06 -9.94625e+07 3377.1 2572.54 2589.46 0.05 
12409 1 -0.163606 0.480956 7.00725 0 0 0 0.00492049 -89.4915 -0.0196915 0 -804.82 -39.8079 -239.633 0.847826 -3950.1 0.05 
10883 1 -3.17124 0.531269 7.00856 0 0 0 9.33071 -305.255 -5.15863 3.67009e+06 -7.34457e+07 -1.21047e+06 2000.09 111.266 -2932.56 0.05 
3048 1 -3.04697 0.568413 7.00355 0 0 0 2.25765 -312.299 -0.304452 28.4028 -5265.73 -39.8079 3755.63 52.6541 108.242 0.05 
3352 1 -1.51552 0.551437 7.00681 0 0 0 -1.53125 -238.291 -102.196 -0.119955 -3565.11 -39.8079 3792.27 -4411.26 -4471.29 0.05 
13715 1 -1.90685 0.599189 7.00378 0 0 0 73.8099 -102.397 -72.7413 2.55101e+08 -6.41287e+07 -1.44452e+06 3317.35 -1948.03 -178.181 0.05 
13544 1 -1.42283 0.608449 7.00663 0 0 0 22.5828 -40.3325 -76.6196 392123 -505199 -1.14888e+06 7592.69 2750.49 5397.3 0.05 
13720 1 -3.03318 0.674859 7.00918 0 0 0 319.89 -342.284 -0.632628 22.1413 -90610 -39.8079 2873.36 6100.38 -4091 0.05 
10007 1 -2.6515 0.636803 7.00373 0 0 0 419.021 -316.008 -101.149 -1.59124 -29872 -39.8079 5976.28 951.447 -8262.05 0.05 
11300 1 -2.10195 0.639271 7.00816 0 0 0 292.352 -467.732 -2.04533 -0.398545 -31987.1 -39.8079 5402.48 4562.85 -177.64 0.05 
8166 1 -1.99834 0.637193 7.00049 0 0 0 135.203 -217.626 -0.0668973 -187765 281224 439288 5023.06 3981.47 337.876 0.05 
13670 1 -1.25993 0.66433 7.00022 0 0 0 116.724 -334.279 -3.44127 4.66798e+08 2.43654e+06 6.12522e+06 1491.04 3434.27 -356.869 0.05 
5082 1 -0.782965 0.647974 7.00551 0 0 0 2.24865 1.66482 -55.9958 9.32753e+06 -3.74335e+06 -5.07174e+08 -924.64 -1938.45 326.793 0.05 
12413 1 -0.27715 0.636297 7.0014 0 0 0 3.50702 -180.837 -423.947 1.0184e+07 1.86954e+08 -255888 6289.26 6874.07 97.0829 0.05 
1098 1 -0.0776935 0.646995 7.00135 0 0 0 -0.280266 -342.462 -0.0683169 0 -39743.5 -39.8079 97.9772 0.0352206 -447.284 0.05 
11065 1 -0.676984 0.687249 7.0001 0 0 0 0.235524 -2.73377 -309.071 19723.2 -1.25784e+06 -134165 -3958.39 9.86921 -3.9075 0.05 
13682 1 -3.49723 0.777607 6.99703 0 0 0 231.046 -198.093 -370.311 9.64486e+06 -3.59355e+07 -3.40767e+06 -1366.71 8116.8 -1760.99 0.05 
7302 1 -3.50907 0.788216 7.0053 0 0 0 411.599 -3559.82 -299.396 5.55274e+06 5.22261e+07 428026 1467.06 4813.12 -401.776 0.05 
13918 1 -3.39427 0.767313 7.0021 0 0 0 334.508 -143.292 -98.2271 -12123 -1.33659e+07 -890156 4981.41 5031.57 -7788.22 0.05 
8765 1 -2.64408 0.740371 7.00021 0 0 0 458.574 -291.871 0.209059 -1.56705 -861632 -39.8079 6231.04 8990.58 8896.36 0.05 
5525 1 -1.71673 0.758606 7.00109 0 0 0 261.796 -127.115 -327.138 -1.67914e+06 -3.07699e+07 -1.41263e+06 2134.74 10857.1 525.142 0.05 
13280 1 -1.5813 0.751797 7.00239 0 0 0 270.03 -49.6755 -2.87319 416380 -1.50576e+07 -1.24427e+06 395.251 8143.94 434.248 0.05 
1151 1 -1.13861 0.740656 7.0052 0 0 0 136.772 -43.7371 -202.241 -10341.6 -1.04226e+07 -1.85382e+06 6450.56 6061.36 -4742.65 0.05 
3407 1 -0.60313 0.756686 7.01005 0 0 0 -0.468031 -271.194 -108.545 -287393 -1.1024e+07 -243804 7111.18 -3976.19 -4097.14 0.05 
12807 1 -0.281134 0.746079 7.0011 0 0 0 0.918561 -341.425 -6.04006 0 -1.07623e+06 -39.8079 3204.4 -27.3178 1614.11 0.05 
12715 1 -3.08957 0.790635 7.00485 0 0 0 530.216 -607.588 -325.302 -311196 -9.45215e+06 132428 4235.39 9806.08 2324.33 0.05 