ITEM: TIMESTEP
410000
ITEM: NUMBER OF ATOMS
14052
ITEM: BOX BOUNDS ff pp ff
-3.75 3.75
-1 1
0 10
ITEM: ATOMS id type x y z ix iy iz vx vy vz fx fy fz omegax omegay omegaz radius 
9412 1 -2.15411 -0.351473 2.8179 0 0 0 1.89464 14.6515 -171840 -0.451304 75.0612 -39.8079 -9278.38 13846.1 5701.27 0.05 
13821 1 -1.59504 -0.509438 2.82622 0 0 0 0.275183 105.581 -171857 -0.138557 1435.52 -39.8079 4511.3 3783.37 -2558.63 0.05 
10206 1 -3.22214 0.647858 2.8776 0 0 0 223.628 -338.522 -170107 675.877 -40731.4 -39.8079 5136.14 -10974 -8981.36 0.05 
12795 1 -2.98 -0.319718 2.94294 0 0 0 496.068 -76.1833 -168732 7.84448 43.4381 -39.8079 -10403.9 3184.62 3882.04 0.05 
13215 1 -0.227493 -0.0961537 2.92642 0 0 0 -0.415757 615.338 -169069 0 0.401554 -39.8079 56.5582 22216.6 -6775.57 0.05 
4371 1 -1.71272 0.396193 3.00451 0 0 0 0.978136 -152.086 -167037 -0.173173 -164.471 -39.8079 17513.9 -2599.57 17.1685 0.05 
11397 1 -0.430411 0.755007 3.01725 0 0 0 0.381765 49.8464 -166689 0 -1.53959e+06 -39.8079 9019.46 16450.5 -5556.43 0.05 
7183 1 -0.750537 -0.357535 3.0272 0 0 0 -0.775491 310.249 -166448 0 83.3764 -39.8079 -12783.2 -9045.73 -4366.71 0.05 
12202 1 -1.69648 -0.492236 3.11628 0 0 0 179.822 82.5038 -164076 -0.167805 1008.77 -39.8079 9591.61 11592.2 3632.57 0.05 
10576 1 -3.2663 0.233318 3.11176 0 0 0 288.586 -171.665 -164748 1656.92 -9.5677 -39.8079 -34639.3 13625.1 1203.32 0.05 
13017 1 -1.48728 -0.787281 3.1596 0 0 0 0.909248 598.084 -163153 -0.114105 6.32432e+06 -39.8079 -24189.3 -7438.98 3021.17 0.05 
8448 1 -0.483471 -0.795124 3.28764 0 0 0 0.508839 372.573 -159922 0 9.20863e+06 -39.8079 -5624.8 -12451.1 599.922 0.05 
11202 1 -0.848556 0.253693 3.3204 0 0 0 123.447 238.648 -159224 0 -13.8064 -39.8079 -9912.06 27218.7 2176.75 0.05 
13635 1 -1.11896 0.673111 3.30183 0 0 0 1.12983 -249.128 -159669 0 -85871.3 -39.8079 23219.4 1106.72 3265.97 0.05 
11049 1 -2.64732 -0.218548 3.38369 0 0 0 133.741 -5.57847 -157302 -1.57766 7.28015 -39.8079 18.8217 -15907.8 3665.63 0.05 
12319 1 -0.0529359 0.16199 3.38599 0 0 0 -0.207636 85.6351 -158386 0 -2.32076 -39.8079 -4133.99 98548.8 -3973.59 0.05 
9405 1 -1.49216 0.138955 3.39076 0 0 0 152.194 300.962 -157447 -0.115089 -1.35529 -39.8079 -12606.9 -4243.76 -2423.02 0.05 
12761 1 -0.541562 0.526741 3.43827 0 0 0 0.273628 -327.097 -156298 0 -2069.81 -39.8079 16792.2 -12762.6 -880.602 0.05 
13254 1 -1.96443 0.529565 3.45546 0 0 0 -0.150737 27.6364 -155765 -0.291485 -2199.66 -39.8079 -7367.64 -23625.4 3565.41 0.05 
11924 1 -1.4842 0.756296 3.45201 0 0 0 -0.0764035 132475 -156147 -0.113487 -1.62306e+06 -39.8079 -6970.43 -4104.63 9276.99 0.05 
11242 1 -1.16453 0.576458 3.49466 0 0 0 -0.0422323 -200.731 -155175 0 -6366.94 -39.8079 11388 -13157.8 4496.39 0.05 
8681 1 -0.510995 0.813296 3.54076 0 0 0 -0.925695 -836.371 -153783 0 -2.33127e+07 -39.8079 -50699.1 11980.1 1235.89 0.05 
12566 1 -1.89777 0.26944 3.56582 0 0 0 77.5525 -317.074 -153211 -0.252359 -18.2223 -39.8079 -16700 2013.15 5382.68 0.05 
12900 1 -3.4847 0.795466 3.58104 0 0 0 312.444 -551.482 -151839 694134 -9.3639e+06 -39.8079 -23920.6 40304.7 -3110.64 0.05 
12455 1 -2.35561 -0.306386 3.74412 0 0 0 1.67213 168.304 -148866 -0.750389 34.5445 -39.8079 7925.15 12355.5 -4376.61 0.05 
4032 1 -1.64333 0.247762 3.73952 0 0 0 0.993795 310.862 -148998 -0.151615 -12.421 -39.8079 9126.22 20299.1 3259.07 0.05 
7677 1 -1.36622 0.535251 3.74449 0 0 0 -0.253297 -136.767 -149126 -0.0927066 -2488.88 -39.8079 -7104.88 7447.28 662.835 0.05 
10609 1 -1.77683 -0.323117 3.7949 0 0 0 1.51252 -165.219 -147349 -0.196567 46.0504 -39.8079 27672.1 -1753.56 3676.46 0.05 
11415 1 -0.87461 0.813194 3.76744 0 0 0 238.893 -994.236 -148344 0 -2.31866e+07 -39.8079 -96357.5 -10605.3 1405.99 0.05 
8255 1 -3.29118 -0.427878 3.82376 0 0 0 175.983 68.4661 -146740 2834.7 292.056 -39.8079 -29492.7 -11449 4606.84 0.05 
13781 1 -2.5244 -0.000970794 3.92689 0 0 0 31.3856 1.24119 -144580 -1.1727 3.7329e-07 -39.8079 5489.15 -18032.1 -657.816 0.05 
6492 1 -1.69663 0.755805 3.97358 0 0 0 110.525 -202.396 -142339 -0.167852 -1.5907e+06 -39.8079 16696.9 -12891.1 2389.16 0.05 
9165 1 -2.4359 -0.768685 4.04344 0 0 0 69.1415 65.7991 -141097 -0.927873 2.7351e+06 -39.8079 -44682.4 13410.2 -3042.24 0.05 
12363 1 -3.14695 -0.411979 4.01087 0 0 0 355.596 239.597 -142172 165.975 218.426 -39.8079 8225.56 -3555.31 5490.18 0.05 
6487 1 -3.35342 -0.322665 4.03668 0 0 0 396.856 223.839 -141599 12349 45.6937 -39.8079 12836.7 -22377.9 -7704.65 0.05 
7639 1 -0.954678 -0.191005 4.01604 0 0 0 -1.0914 165.7 -141912 0 4.27178 -39.8079 15457.6 21674 1082.4 0.05 
13278 1 -2.04227 0.798704 4.08351 0 0 0 147.39 -1208.81 -140221 -0.347045 -1.09841e+07 -39.8079 -69159.6 7820.31 8625.9 0.05 
11852 1 -2.18276 -0.535296 4.13641 0 0 0 209.781 264.791 -138928 -0.483835 2491.34 -39.8079 11897.3 19456.2 984.161 0.05 
10766 1 -2.77303 0.0163021 4.13024 0 0 0 274.323 -645.343 -139270 -1.77819 -0.00177277 -39.8079 -41199.7 -4787.51 941.861 0.05 
12207 1 -0.638598 0.205118 4.14794 0 0 0 -0.261889 -17318 -139063 0 -5.63864 -39.8079 -20262.1 -18969.9 601.985 0.05 
3777 1 -2.73474 -0.865445 4.18318 0 0 0 477.102 46609.4 -137498 -1.7923 6.16868e+08 -39.8079 2511.96 -4716.12 -2155.11 0.05 
11713 1 -2.1512 -0.259736 4.19464 0 0 0 187.819 -811.193 -137639 -0.44814 15.3654 -39.8079 12852.1 -8865.71 6541.5 0.05 
9454 1 -2.46691 -0.119825 4.1963 0 0 0 23.8613 148.175 -137789 -1.00763 0.822445 -39.8079 8704.99 5585.32 2765.96 0.05 
3037 1 -0.655458 0.0306503 4.28917 0 0 0 51.9572 -3.79083 -135437 0 -0.0118695 -39.8079 -3964.81 -4136.05 3439.81 0.05 
9289 1 -0.142838 0.31732 4.31813 0 0 0 1.1644 -131.287 -134108 0 -41.685 -39.8079 -3624.17 -6460.88 4435.75 0.05 
10622 1 -2.52983 -0.515489 4.37407 0 0 0 149.526 3.09674 -132670 -1.18941 1629.35 -39.8079 -19546.9 30099.5 -1973.68 0.05 
9291 1 -0.582904 -0.164597 4.40909 0 0 0 0.867404 -55.9492 -132285 0 2.45808 -39.8079 9808.39 -21308.2 -682.456 0.05 
1298 1 -2.3191 -0.551365 4.48191 0 0 0 79.3297 274.928 -130642 -0.682275 3559.32 -39.8079 5833.24 8835.42 -5717.94 0.05 
6601 1 -3.06499 -0.238985 4.48144 0 0 0 222.059 156.804 -130485 39.1241 10.6062 -39.8079 1511.83 7088.19 3380.35 0.05 
8417 1 -2.52954 -0.0417815 4.4969 0 0 0 9.37303 66461.2 -129879 -1.1885 0.0303335 -39.8079 7807.19 -6700.52 1209.71 0.05 
11208 1 -0.922927 0.314829 4.61637 0 0 0 -0.489781 -313.998 -127289 0 -39.9391 -39.8079 -18203.6 16205.6 -2992.52 0.05 
10028 1 -3.4426 0.692943 4.60977 0 0 0 387.039 -271.885 -126502 158947 -160724 -39.8079 44558.4 21410.1 2807.04 0.05 
11214 1 -1.90735 0.802519 4.66086 0 0 0 194.512 -986.873 -125393 -0.257564 -1.33005e+07 -39.8079 -70915.1 587.244 -4847.1 0.05 
2112 1 -1.37342 -0.39739 4.72565 0 0 0 111.049 -54.5441 -124158 -0.0938309 168.022 -39.8079 1233.91 1872.77 1305.06 0.05 
206 1 -2.29028 -0.760113 4.77718 0 0 0 83.4541 70.7084 -122356 -0.633443 1.90066e+06 -39.8079 -18401.5 -18084.4 1061.65 0.05 
13478 1 -2.78653 0.407452 4.82407 0 0 0 449.637 -45.6363 -121456 -1.7405 -201.268 -39.8079 -10129.5 -26863.5 2476.92 0.05 
8660 1 -2.89344 -0.777559 4.87953 0 0 0 534.999 452.343 -119849 0.0712052 4.04485e+06 -39.8079 14477.5 -14760.4 -8301.81 0.05 
9911 1 -2.30354 -0.192765 4.85898 0 0 0 90.3066 -152.24 -121287 -0.655387 4.42478 -39.8079 -9458.35 6156.14 792.257 0.05 
4730 1 -2.34655 0.569738 4.83601 0 0 0 334.723 -235.071 -121644 -0.732793 -5431.88 -39.8079 20948.1 -7961.38 -4366.16 0.05 
12559 1 -2.31116 -0.771894 4.89159 0 0 0 32464 48.8336 -119774 -0.66841 3.14526e+06 -39.8079 -43723.8 -25383.5 -13862.8 0.05 
4350 1 -1.9389 -0.589404 4.9728 0 0 0 93.4383 630.491 -117650 -0.275677 8706.18 -39.8079 -12400.1 -42919.9 4136.68 0.05 
13047 1 -1.47138 -0.50372 4.94287 0 0 0 2.72496 121.491 -118930 -0.110967 1275.18 -39.8079 -5261.26 -2525.86 1985.84 0.05 
9947 1 -0.484488 -0.210394 4.98302 0 0 0 0.987894 -342.507 -117774 0 6.23969 -39.8079 -10103.5 12433.8 10082.9 0.05 
7680 1 -0.230754 0.660169 4.97213 0 0 0 -0.0890154 3.3095 -117826 0 -58194.5 -39.8079 -7670.81 -7350.76 -6526.56 0.05 
3659 1 -1.1594 -0.606988 4.99114 0 0 0 5.16334 430.757 -117801 0 13524.3 -39.8079 2733.13 11103 -565.496 0.05 
12881 1 -0.0784057 0.808918 9.80476 0 0 0 -17.6084 -939.15 -918.868 -3.81836e+06 -2.16794e+07 -1.00242e+07 -6781.67 -7695.3 1392.46 0.05 
11268 1 -1.9323 -0.198527 5.13281 0 0 0 1.76208 -81.2142 -114222 -0.271765 4.95932 -39.8079 29864.8 -3618.73 -685.673 0.05 
12040 1 -3.1884 0.0910167 5.10022 0 0 0 471.714 -356.738 -114849 354.367 -0.336973 -39.8079 15089.1 17082 -86.3417 0.05 
7591 1 -0.677 0.715693 5.16152 0 0 0 -0.00815119 67.6048 -113236 0 -347319 -39.8079 14341 -7770.88 7549.9 0.05 
12192 1 -0.206423 0.179023 5.21266 0 0 0 2.37786 -93.6073 -112466 0 -3.34467 -39.8079 19408.4 -524.192 3250.39 0.05 
13500 1 -0.507362 -0.273949 5.25132 0 0 0 1.06112 -118915 -111014 0 19.7155 -39.8079 38161.3 9002.19 3337.92 0.05 
8359 1 -2.18526 0.0536607 5.31547 0 0 0 77.7597 -401.521 -109586 -0.486799 -0.0650647 -39.8079 -5819.2 -7486.86 -11905.4 0.05 
9169 1 -1.88523 0.211105 5.33436 0 0 0 34.9853 72468.5 -109754 -0.245736 -6.32482 -39.8079 18361.9 -32131.1 19347.1 0.05 
10939 1 -2.73816 0.641497 5.3251 0 0 0 188.799 39.8085 -108479 -1.79528 -34036.6 -39.8079 3906.56 21481.6 603.853 0.05 
13249 1 -1.23474 -0.748666 5.36569 0 0 0 199.43 545.553 -107671 0 1.19232e+06 -39.8079 -27288.1 23601.4 -625.568 0.05 
13159 1 -3.5512 0.484302 5.37515 0 0 0 918.071 -477.741 -107355 1.24435e+07 -860.217 -39.8079 -17199.1 -37408.3 -2407.07 0.05 
8437 1 -3.41383 0.674877 5.36349 0 0 0 585.198 38137.2 -108235 64863.6 -90660.7 -39.8079 19327.7 -34445.8 -4832.02 0.05 
12032 1 -2.87577 -0.334798 5.48341 0 0 0 290.307 -84.2953 -104733 -0.53424 56.2935 -39.8079 4790.94 -28224.8 3147.42 0.05 
13964 1 -0.207488 -0.243527 5.49529 0 0 0 -1.73267 -435.101 -104936 0 11.5123 -39.8079 -4294.31 -12211.4 -775.338 0.05 
6590 1 -3.55467 -0.130855 5.48928 0 0 0 747.547 131.805 -105312 1.4842e+07 1.10458 -39.8079 6267.37 -36918.6 8012.27 0.05 
9303 1 -0.349088 -0.119249 5.49109 0 0 0 0.589332 122.437 -105137 0 0.809382 -39.8079 -13928.1 -5148.38 933.195 0.05 
1859 1 -2.69911 0.259852 5.50174 0 0 0 110.629 -566.061 -104579 -1.72928 -15.3969 -39.8079 -5784.6 4348.33 5790.38 0.05 
12315 1 -3.41826 0.442867 5.48375 0 0 0 198.619 122.553 -105651 74093.2 -386.001 -39.8079 29274.3 -39488.5 7802.64 0.05 
6890 1 -2.16676 0.314245 5.55055 0 0 0 130.388 247.473 -103525 -0.465329 -39.5403 -39.8079 2141.05 14005.6 -3014.62 0.05 
4674 1 -1.59903 0.566204 5.5361 0 0 0 169.282 83.8287 -103803 -0.13958 -5001.19 -39.8079 24967.3 -9431.76 9902.63 0.05 
271 1 -3.47201 -0.159029 5.57422 0 0 0 267.216 194.947 -103281 434832 2.17245 -39.8079 -6456.94 40297.8 -4579.49 0.05 
13236 1 -3.13692 -0.18548 5.57468 0 0 0 271.394 -26401 -102743 138.72 3.82033 -39.8079 1781.1 -1637.86 4576.29 0.05 
11483 1 -1.88837 -0.703292 5.63848 0 0 0 4.93022 4887.63 -101314 -0.247372 226543 -39.8079 65648.3 -5559.14 -2364.46 0.05 
7042 1 -1.68915 0.383861 5.68213 0 0 0 223.827 -12654.7 -100089 -0.165448 -132.147 -39.8079 -34206.3 -5516.62 3736.18 0.05 
13162 1 -0.413169 0.0441553 5.72898 0 0 0 109.41 261.21 -98328.8 0 -0.0358832 -39.8079 336.558 -9142.93 2716.89 0.05 
3372 1 -1.59223 -0.0168668 5.76591 0 0 0 4.82462 104.867 -98057.9 -0.137839 0.00196387 -39.8079 -23909.3 -10681.9 -2635.59 0.05 
8516 1 -0.701534 0.265757 5.78538 0 0 0 1.42313 -60.5683 -97581.6 0 -17.0833 -39.8079 2073.26 9071.94 8287.91 0.05 
3963 1 -0.262164 0.568897 5.77935 0 0 0 2.44269 221.947 -97608.4 0 -5325.79 -39.8079 -5048.29 -19173.1 -6525.2 0.05 
10960 1 -1.21398 0.76898 5.78233 0 0 0 595.398 -3068.67 -97761.7 0 -2.77028e+06 -39.8079 -90095.7 -10669.7 9763.8 0.05 
10345 1 -3.09093 -0.689129 5.81589 0 0 0 128.2 5019.74 -96029.9 61.6994 142034 -39.8079 52479.7 4063.3 -1435.06 0.05 
13612 1 -1.51802 -0.180144 5.85787 0 0 0 62.0346 -322.345 -95748.3 -0.120491 3.42348 -39.8079 -15597.4 371.408 3250.97 0.05 
4198 1 -1.48497 -0.0448714 5.84144 0 0 0 89.7897 67.2626 -96374.1 -0.113641 0.0376839 -39.8079 -21743.3 -3519.48 1061.91 0.05 
11890 1 -2.83994 0.138239 5.84138 0 0 0 451.004 -143.809 -96205.9 -1.29417 -1.33152 -39.8079 22358.7 -25560.3 3189.61 0.05 
13505 1 -0.162815 0.120887 5.85572 0 0 0 153.17 69735 -96226 0 -0.84691 -39.8079 23766.4 5473.26 -5383.39 0.05 
10867 1 -3.06782 0.790499 5.85493 0 0 0 400.747 -496.378 -95278.5 41.1295 -7.36608e+06 -39.8079 -14545.6 26999.2 991.261 0.05 
13274 1 -1.34212 -0.795194 5.90578 0 0 0 153.741 215.337 -94381.9 -0.0890613 9.23997e+06 -39.8079 2351.61 -12550.2 -462.172 0.05 
12344 1 -0.104798 -0.231635 5.96098 0 0 0 -0.974427 -381.27 -92491.4 0 9.27772 -39.8079 -1449.49 -3011.39 12858.7 0.05 
12661 1 -3.5341 0.28185 5.95443 0 0 0 622.718 -45.1973 -93168.8 5.45193e+06 -22.6197 -39.8079 15991.1 -5875.18 -3027.09 0.05 
9422 1 -1.45315 0.431609 5.92986 0 0 0 145.633 -279.523 -93780.3 -0.107499 -312.901 -39.8079 5125.03 2882.75 6268.6 0.05 
4108 1 -0.716693 -0.612172 6.00907 0 0 0 8.49039 343.144 -91544.4 0 15455.7 -39.8079 23231 11283.8 -603.078 0.05 
11228 1 -0.852135 0.672432 6.01928 0 0 0 212.248 -292.289 -91138.1 0 -84106 -39.8079 26710.5 22515 882.167 0.05 
10294 1 -1.6815 -0.715171 6.06378 0 0 0 8.9747 -85.0945 -90196.4 -0.163033 341005 -39.8079 15261.7 -5016.74 -2015.43 0.05 
7105 1 -1.48402 -0.377319 6.0506 0 0 0 154.374 -258.265 -90828.2 -0.113451 117.767 -39.8079 15953.6 -388.134 9770.12 0.05 
10394 1 -1.97696 -0.799621 6.08306 0 0 0 455.702 913.961 -89839.8 -0.299655 1.14971e+07 -39.8079 48274.2 4032.71 470.026 0.05 
6232 1 -3.38079 -0.586434 6.10398 0 0 0 598.046 593.153 -89029.1 25334.6 8096.46 -39.8079 -27584.8 35113.1 -8282.62 0.05 
11247 1 -2.3694 -0.080849 6.10871 0 0 0 281.584 -280.537 -89138.6 -0.778052 0.231676 -39.8079 20176.5 16917.6 2779.55 0.05 
3780 1 -0.873062 -0.0786281 6.0776 0 0 0 214.749 -236.551 -90065.6 0 0.212273 -39.8079 10985.2 15940 -3369.77 0.05 
8380 1 -0.565357 -0.681107 6.15957 0 0 0 156.055 462.047 -88010.4 0 110051 -39.8079 -75.1218 -1963.71 6907.18 0.05 
11812 1 -2.01862 -0.409983 6.20569 0 0 0 8.26129 65.9613 -86739.4 -0.328894 210.678 -39.8079 -10600.1 -24162.6 9882.96 0.05 
1210 1 -0.287025 0.25307 6.22127 0 0 0 0.254153 226.035 -86541 0 -13.6542 -39.8079 28407.2 -2975.74 -16011.4 0.05 
11567 1 -2.34585 0.660058 6.22852 0 0 0 176.814 -583.36 -85965.3 -0.731459 -58003.8 -39.8079 1786.99 -21168.7 -7103.01 0.05 
13755 1 -0.903038 -0.276404 6.24949 0 0 0 3.04535 472.909 -85593.1 0 20.577 -39.8079 -25575.7 30462.9 -6314.97 0.05 
9416 1 -3.55381 0.058371 6.26773 0 0 0 877.727 -10.5578 -85264.2 1.41985e+07 -0.0842341 -39.8079 -16972.8 -56184.6 4454.39 0.05 
4329 1 -2.28263 0.241943 6.25817 0 0 0 436.396 -111.317 -84885.3 -0.621157 -11.1884 -39.8079 -2387.67 -15375.5 689.759 0.05 
13282 1 -3.21655 0.438333 6.27862 0 0 0 370.898 -563.587 -84482.6 605.981 -354.582 -39.8079 20389 -43565.5 -11889.1 0.05 
11916 1 -1.86244 0.437601 6.25041 0 0 0 70.8084 -59.1589 -85731.7 -0.234241 -349.766 -39.8079 21488.1 5883.66 -749.099 0.05 
13012 1 -1.05154 -0.636666 6.29131 0 0 0 394.42 185.037 -84787.3 0 29759.6 -39.8079 21567.3 -6382.23 -849.642 0.05 
8433 1 -1.98832 -0.116651 6.37535 0 0 0 90.5099 -85.5952 -82741.8 -0.307301 0.752497 -39.8079 -27629.9 -1613.83 63.4766 0.05 
11564 1 -3.51435 0.901839 6.34365 0 0 0 321.123 85107.4 -82607.4 2.27162e+06 -1.44479e+10 -39.8079 261.991 23243.1 7058.2 0.05 
13957 1 -0.598619 -0.80342 6.41234 0 0 0 -0.438965 661.5 -81583.4 0 1.39227e+07 -39.8079 59375.1 20431 -1552.29 0.05 
3281 1 -1.80483 -0.499124 6.42409 0 0 0 79.8529 308.959 -80747.1 -0.208006 1160.39 -39.8079 26017.5 -1559.52 -5358.65 0.05 
9961 1 -3.53922 -0.450446 6.41554 0 0 0 486.637 185.325 -80410.8 6.93031e+06 445.368 -39.8079 31142.8 -24806.9 -9770.97 0.05 
12325 1 -2.51148 -0.289573 6.40232 0 0 0 567.319 149.826 -81643.2 -1.13368 25.856 -39.8079 3195.34 13151 3670.74 0.05 
12952 1 -2.76179 -0.215586 6.39942 0 0 0 194.592 498.246 -81769.9 -1.79464 6.88568 -39.8079 -5596.16 13792.8 -4217.11 0.05 
7835 1 -1.02242 -0.108743 6.47237 0 0 0 265.872 325.825 -79933.1 0 0.59766 -39.8079 -18124.5 -28720.3 5095.93 0.05 
5927 1 -0.693439 -0.721211 6.52694 0 0 0 0.751385 4255.4 -78576.9 0 422591 -39.8079 45653.4 -463.853 2434.88 0.05 
13010 1 -2.89079 0.484953 6.50251 0 0 0 451.052 282.257 -78615.9 -0.0319977 -871.469 -39.8079 11212.3 -23202.4 2727.87 0.05 
11203 1 -0.298335 0.769714 6.49407 0 0 0 59.4273 40.1745 -78279 0 -2.85983e+06 -39.8079 -16840.2 -19091.4 7106.99 0.05 
6997 1 -1.25695 -0.798524 6.54902 0 0 0 7.76568 2020.87 -77910.7 -0.0775308 1.08864e+07 -39.8079 104188 -3819 10772.9 0.05 
12277 1 -2.5309 -0.701648 6.57107 0 0 0 325.726 565.29 -76782.4 -1.19272 214351 -39.8079 5654.59 -17783.4 -7973.42 0.05 
10018 1 -2.74457 -0.122986 6.56935 0 0 0 265.188 264.743 -77504.8 -1.79897 0.896886 -39.8079 -8288.21 -4563.39 -8281.17 0.05 
3539 1 -0.255395 -0.676194 6.60069 0 0 0 229.158 250.873 -76730.4 0 94424.8 -39.8079 -28886.6 8081.73 7369.33 0.05 
7469 1 -0.105044 -0.651704 6.60169 0 0 0 4.7581 46.7443 -76297.7 0 45473.3 -39.8079 -2407.67 -5808.57 -2764.24 0.05 
11555 1 -0.792513 -0.550957 6.66381 0 0 0 363.825 -220.847 -74082.9 0 3526.68 -39.8079 -11791.8 -17522.3 961.235 0.05 
11344 1 -0.267176 -0.56538 6.6485 0 0 0 5.43804 -4.49355 -75193.8 0 4906.27 -39.8079 23001.7 -936.71 4012.35 0.05 
6901 1 -0.0537495 0.0372432 6.64242 0 0 0 0.461508 -3.09134 -76635.4 0 -0.0213995 -39.8079 -22917.7 104160 1454.02 0.05 
13458 1 -3.34228 -0.109872 6.72147 0 0 0 181.796 -41.682 -73559 9343.16 0.618153 -39.8079 18407.7 -12866.5 -4957.3 0.05 
12466 1 -2.08326 -0.05901 6.73093 0 0 0 300.262 151558 -73491 -0.381479 0.0871024 -39.8079 5353.66 -9415.89 6519.21 0.05 
8541 1 -1.63813 0.170912 6.73772 0 0 0 6.86351 25451 -73294.3 -0.150139 -2.81848 -39.8079 13423.6 -24549.3 -4350.63 0.05 
2425 1 -2.46211 0.236271 6.7014 0 0 0 66.0808 471.966 -74051.8 -0.994865 -10.0966 -39.8079 5905.47 -5917.71 7310.86 0.05 
2973 1 -1.87764 -0.31725 6.82107 0 0 0 120.55 77.8663 -70439.4 -0.24183 41.6346 -39.8079 -6675.36 -4118.29 2660.5 0.05 
8206 1 -1.54275 -0.602848 6.85849 0 0 0 162.591 278.139 -70272.8 -0.125954 12171.7 -39.8079 -8246.42 12291.5 -8980.09 0.05 
8830 1 -2.19782 -0.0741495 6.87297 0 0 0 291.125 598.303 -69213.9 -0.50205 0.17669 -39.8079 2280.84 -4759.88 -557.186 0.05 
8867 1 -3.37018 -0.0086575 6.87289 0 0 0 175.653 -142.955 -68445.3 19060.3 0.000264968 -39.8079 -12620.4 676.409 961.516 0.05 
3838 1 -2.30282 -0.658222 6.91763 0 0 0 341.851 -53.4677 -67839.7 1.09616e+07 1.87092e+06 3.41478e+08 15769.9 -11288.9 4420.14 0.05 
11387 1 -1.74247 -0.355885 6.93595 0 0 0 147.018 12765.9 -67459.2 -0.183576 81.0235 -39.8079 60006.6 -11354 -10403.1 0.05 
6813 1 -1.00677 -0.331001 6.91525 0 0 0 6.82129 -37.6129 -68184.5 0 52.733 -39.8079 -2058.13 18839 -1325.8 0.05 
10564 1 -1.22533 0.247764 6.91123 0 0 0 121.999 251.455 -68383.4 0 -12.4215 -39.8079 7339.68 5379.02 -3964.87 0.05 
14013 1 -3.30281 -0.810057 7.00186 0 0 0 5.49875 1598.31 1.78599 1.71747e+06 1.12493e+07 692825 -798.385 4.15772 3331.5 0.05 
196 1 -3.09803 -0.800613 7.00883 0 0 0 1.12766 1920.37 -169.664 83047.7 3.34537e+06 -705215 -7823.12 463.904 398.297 0.05 
12327 1 -1.10086 -0.810628 7.00054 0 0 0 1.85389 742.11 1.65378 1.03272e+06 1.74576e+07 743068 -5429.89 93.5324 3960.21 0.05 
6695 1 -0.781354 -0.81228 7.00084 0 0 0 -0.275619 1061.25 -2.13271 -105187 2.11601e+07 -224872 -1073.04 -5.09248 283.585 0.05 
13221 1 -0.460258 -0.814764 6.99587 0 0 0 1.77728 1041.72 -266.841 400750 1.68641e+07 1.40638e+06 -8877.56 -3357.3 -681.492 0.05 
9943 1 -2.92931 -0.761187 7.00533 0 0 0 133.519 539.165 -563.193 136483 2.56951e+06 -776110 -1349.19 12332.8 -2065.22 0.05 
13855 1 -1.76181 -0.753034 7.00198 0 0 0 37.694 290.982 -74.8096 -471786 5.32265e+06 1.65769e+06 -3405.27 3671.22 -5477.37 0.05 
12243 1 -0.703177 -0.747001 6.99914 0 0 0 79.2819 321.07 -334.437 0 1.11613e+06 -39.8079 -5970.99 2279.07 -7839.35 0.05 
11028 1 -0.585259 -0.763039 6.99736 0 0 0 -0.0473256 245.251 -393.294 -2.85656e+06 -1.29214e+08 2.38161e+06 -3503.32 -606.54 4921.5 0.05 
5466 1 -0.115587 -0.778372 7.0048 0 0 0 -1.06776 490.162 -133.28 0 4.19579e+06 -39.8079 -10239 -3204.55 -3795.08 0.05 
13426 1 -3.28237 -0.732025 7.00829 0 0 0 270.237 218.638 -2.43096 4.08704e+07 3.25311e+07 -2.38943e+06 -1570.45 4360.14 -1223.93 0.05 
9896 1 -3.0627 -0.701275 7.00751 0 0 0 310.93 61.6781 -234.731 37.575 211684 -39.8079 5202.11 -940.002 -4373.98 0.05 
11386 1 -2.47805 -0.714137 7.0029 0 0 0 283.494 261.49 -428.178 -1.01744e+06 813348 -102127 381.804 1513.95 -815.681 0.05 
3934 1 -3.41679 -0.664844 6.99043 0 0 0 5476.79 5298.66 -64910.1 -9.60255e+07 -9.69222e+07 1.47251e+09 14108.4 -34594.2 -4777.15 0.05 
11448 1 -3.34819 -0.658791 7.00381 0 0 0 388.92 102.122 -261.702 6.09865e+07 8.22317e+07 -3.76918e+08 -6238.15 -4605.61 -235.326 0.05 
9043 1 -2.27345 -0.662266 7.00071 0 0 0 337.597 0.717018 -295.424 -1.09616e+07 -1.75404e+06 -3.41478e+08 -370.818 -2578.53 -134.436 0.05 
13214 1 -1.69851 -0.63816 7.00654 0 0 0 337.979 265.795 -157.644 -679451 562207 -681636 1737.67 2161.54 6021.07 0.05 
13698 1 -0.541419 -0.632469 6.99848 0 0 0 356.682 27.9585 -236.919 -492055 -2.48405e+08 2.82968e+06 4149.58 -146.775 1064.55 0.05 
3890 1 -3.45036 -0.604541 7.00243 0 0 0 452.908 13.3645 -288.499 3.17741e+07 2.7416e+07 -3.82456e+08 2103.1 11737.9 1262.33 0.05 
14036 1 -2.36836 -0.625718 6.99944 0 0 0 394.119 174.214 -246.798 -0.775926 22090.5 -39.8079 -2810.68 10591.6 -5057.98 0.05 
9387 1 -1.88128 -0.630605 6.99841 0 0 0 362.588 410.25 -203.909 -0.243692 25206.6 -39.8079 -10148.1 -3104.27 4983.85 0.05 
13329 1 -1.32451 -0.592527 7.00407 0 0 0 430.604 256.362 -0.004751 -0.0865103 9401.95 -39.8079 -1941.81 4204.42 -4716.37 0.05 
5912 1 -0.351849 -0.595038 7.00117 0 0 0 423.986 404.215 -70.2555 0 10005.6 -39.8079 -8306.81 7485.19 2955.8 0.05 
8337 1 -3.09323 -0.552551 6.96304 0 0 0 401.307 1114.57 -66540.4 -1.17503e+07 -1.41766e+07 8.01202e+08 -2336.01 -1258.69 2425.06 0.05 
11316 1 -2.80865 -0.55576 7.00162 0 0 0 287.696 210.027 -3.93196 -1.62426 3932.16 -39.8079 -3944.5 4585.05 -5793.04 0.05 
11479 1 -2.45528 -0.532853 6.99973 0 0 0 302.989 220.602 -309.972 1.67954e+06 280094 -166956 -3240.67 -6269.26 6471.06 0.05 
3581 1 -1.73889 -0.534508 7.00825 0 0 0 306.571 258.362 -385.235 -0.182282 2448.87 -39.8079 -8983.15 2409.56 2379.19 0.05 
12594 1 -0.811099 -0.546636 7.00526 0 0 0 301.604 281.666 -327.8 -650254 19929.7 -527724 227.272 7014.12 4659.07 0.05 
10556 1 -0.705822 -0.536936 7.00763 0 0 0 306.286 340.165 -249.759 -855719 -734652 1.38735e+06 1447.92 -1159.94 -3316.94 0.05 
9307 1 -0.25679 -0.529224 7.00053 0 0 0 289.382 485.802 -288.794 0 2183.55 -39.8079 549.015 3441.22 1945.48 0.05 
12205 1 -3.11794 -0.502774 7.00273 0 0 0 226.278 84.7582 -257.833 7.28298e+06 -8.66062e+06 -4.10769e+08 -439.696 4424.26 4645.68 0.05 
7966 1 -2.01919 -0.516243 7.00032 0 0 0 271.075 398.97 -67.7064 -0.329318 1655.42 -39.8079 -2696.06 2518.34 -512.502 0.05 
7434 1 -1.82321 -0.478989 7.00663 0 0 0 26.9719 10227.3 -246.633 -3.71566e+06 -7.32985e+07 -2.31915e+06 619.733 2627.5 -1551.69 0.05 
10984 1 -1.50039 -0.505307 6.99702 0 0 0 245.203 154.023 -392.711 -91840.7 467957 -1.45661e+06 -3702.69 4243.98 581.711 0.05 
13525 1 -1.36969 -0.487211 7.00858 0 0 0 215.673 323.652 -55.1985 -655651 -583110 -261708 -3518.25 1952.67 4190.24 0.05 
5517 1 -3.37229 -0.433825 6.99995 0 0 0 6896.13 -2.74776 -1.22245 -5.15962e+07 -828571 -131445 -3.47381 -6594.87 2820.6 0.05 
6295 1 -3.22155 -0.469358 7.00503 0 0 0 127.988 325.598 -202 668.132 640.677 -39.8079 -7466.71 412.582 5921.79 0.05 
13644 1 -2.15667 -0.468144 6.99871 0 0 0 112.019 48.5352 -175.272 -0.454095 625.713 -39.8079 7985.45 350.986 5409.37 0.05 
7418 1 -1.68382 -0.447262 6.99546 0 0 0 0.857051 282.349 -286.097 -0.163761 419.318 -39.8079 -676.399 -2792.98 1280.38 0.05 
3483 1 -0.637932 -0.469933 7.00936 0 0 0 133.783 133.172 -5.45706 855719 737882 -1.38743e+06 -4355.97 1556.54 2252.48 0.05 
10082 1 -0.0747181 -0.46253 7.00105 0 0 0 2.68601 55176.6 -105.179 1.59383e+07 -9.32122e+08 3.71714e+06 -55391.2 -2262.62 -32072.8 0.05 
6072 1 -3.06715 -0.414803 7.00455 0 0 0 3.51474 64.5218 -100.188 845248 10647.7 76006.4 -390.556 -4217.71 1272.49 0.05 
11339 1 -2.07376 -0.370937 7.00206 0 0 0 4.48103 199.229 -311.771 -0.37314 105.304 -39.8079 -714.744 702.896 4663.71 0.05 
12492 1 -1.42302 -0.400352 7.00327 0 0 0 0.290928 283.972 -444.798 -0.10206 177.161 -39.8079 -5414.35 134.491 4899.75 0.05 
2539 1 -1.16147 -0.40728 7.00888 0 0 0 5.35321 144.852 -3.28956 -1.48514e+06 7.13363e+07 -1.78418e+06 -1373.54 -53.8923 -4577.77 0.05 
6261 1 -0.775933 -0.369148 6.99425 0 0 0 1.67574 92.3675 -309.777 -1.77037e+07 -7.65616e+08 2.31896e+07 727.917 3761.2 1816.52 0.05 
11157 1 -0.354935 -0.408623 7.00165 0 0 0 1.75371 313.348 -2.15123 2.81517e+06 6.28968e+07 -1.55151e+06 -4301.58 10.5272 4240.44 0.05 
12860 1 -0.239987 -0.404406 7.00327 0 0 0 3.75714 471.621 -1.05676 0 190.529 -39.8079 -3509.92 38.6517 -988.115 0.05 
3298 1 -2.40021 -0.348297 7.00385 0 0 0 65.5667 241.233 -207.688 4.18397e+06 -1.20425e+08 -2.5443e+06 -7131.19 4975.5 -8199.87 0.05 
13080 1 -1.62762 -0.324371 7.00379 0 0 0 197.403 174.315 -0.751569 581983 -1.00523e+06 -4206.06 -1195.93 1304.37 -11174.6 0.05 
11927 1 -1.26185 -0.327894 7.00104 0 0 0 189.716 63.248 -2.93009 -1.84451e+06 8.54859e+07 -1.43272e+06 -424.401 1441.43 -5065.39 0.05 
11626 1 -3.32653 -0.29257 7.00689 0 0 0 303.066 -0.212837 -265.272 6377.42 27.2295 -39.8079 4436.21 -2902.13 -4277.21 0.05 
246 1 -1.97333 -0.304397 7.00766 0 0 0 260.929 165.702 -38.5191 -214438 -1.59633e+08 -3.7816e+06 -3013.57 2998.46 -8603.01 0.05 
13413 1 -0.7505 -0.269719 7.00753 0 0 0 335.437 53.6479 -74.4925 -247353 1.11537e+06 9995.48 5068.35 1419.19 -106.698 0.05 
13443 1 -2.62053 -0.231706 7.00158 0 0 0 313.613 296.068 -303.133 2.43985e+06 -1.13973e+08 -588050 -9029.26 -1772.9 1772.69 0.05 
4622 1 -1.81814 -0.21489 7.0101 0 0 0 246.191 5.65833 -4.21583 -0.213731 6.79578 -39.8079 703.339 918.293 5645.47 0.05 
11055 1 -1.58323 -0.222764 7.00797 0 0 0 284.437 77.1732 -126 -0.135578 7.87664 -39.8079 -3994.61 5233.94 1669.15 0.05 
9031 1 -1.07259 -0.253431 7.00495 0 0 0 334.719 288.981 -1.4596 0 13.7421 -39.8079 -2048.04 1858.17 5458.71 0.05 
8291 1 -0.433875 -0.222533 7.00773 0 0 0 3.11097 -343.841 -243.221 3.94964e+06 -1.40863e+08 2.74088e+06 1072.4 -5920.64 -281.73 0.05 
10863 1 -3.46815 -0.176296 6.99983 0 0 0 4398.92 -10.5597 -474.775 -4.90796e+07 -3.03538e+06 554197 -6490.79 -677.263 6031.25 0.05 
11894 1 -3.17227 -0.17618 7.00151 0 0 0 96.69 21.7756 -5.8604 1.07907e+06 7.85371e+07 -1.7004e+06 -353.896 569.814 3514.43 0.05 
12122 1 -0.561716 -0.189071 6.99361 0 0 0 68.7223 -277.25 -437.637 4.12679e+08 9.77763e+06 2.85536e+06 1502.04 3006.32 -2135.15 0.05 
13658 1 -0.159214 -0.167891 6.99539 0 0 0 4.17644 -12.1684 -338.834 7.88297e+06 1.91698e+08 1.46153e+06 3505.94 -2345.87 -5164.19 0.05 
12127 1 -2.82774 -0.110485 7.00499 0 0 0 0.65822 -16.5174 -176.056 -1.45125 0.629505 -39.8079 -349.767 7175.76 -685.997 0.05 
7242 1 -1.01373 -0.155801 7.00257 0 0 0 2.10499 301.785 -440.675 0 2.01965 -39.8079 -4537.36 4110.27 -3968.13 0.05 
6839 1 -2.93504 -0.0572162 7.00059 0 0 0 91.9205 286.016 -1.03186 2.48454 0.0792164 -39.8079 -1689.84 3566.96 -6522.54 0.05 
8449 1 -2.52326 -0.060706 7.00841 0 0 0 162.811 -4.52052 -328.312 -1.16922 0.0950424 -39.8079 -1837.05 8846.9 -3745.01 0.05 
9952 1 -1.27408 -0.0748978 7.00528 0 0 0 84.0763 1.56742 -1.39539 -0.0796925 0.182317 -39.8079 475.418 3136.13 -2102.83 0.05 
13065 1 -0.446118 -0.0742523 7.00081 0 0 0 60.1186 -390.178 -1.95422 0 0.177456 -39.8079 5055.88 2363.08 -659.839 0.05 
11753 1 -2.68169 -0.00628901 7.00293 0 0 0 159.619 81.8827 -133.548 1.89042e+06 175149 -473818 5757.84 1785.14 -1437.44 0.05 
13038 1 -2.38161 -0.0444624 7.0073 0 0 0 162.549 -159.271 -291.818 -1.15675e+06 239782 260627 8617.37 7022.81 2038.23 0.05 
9721 1 -2.21138 -0.0456524 7.00016 0 0 0 124.319 -99.0342 -297.496 1.09731e+06 -9.00345e+07 -1.56142e+06 6018.33 6691.59 -4378.68 0.05 
11177 1 -1.65686 -0.0140867 6.99908 0 0 0 138.595 283.718 -269.185 -1.79624e+06 -896739 -507243 -7254.49 12420.5 -1342.29 0.05 
10773 1 -0.271941 -0.0390741 6.99942 0 0 0 125.946 223.244 -136.989 -5.50982e+06 4.77732e+08 -1.11086e+07 4019.86 7976.85 -6940.57 0.05 
9438 1 -3.45846 0.0212761 7.00233 0 0 0 4585.06 -62.3313 -169.482 -5.21895e+07 822412 -2.20946e+06 -1071.83 -7212.14 -2338.3 0.05 
1157 1 -1.05169 0.0238405 7.00781 0 0 0 115.395 327.817 -0.866401 0 -0.00556302 -39.8079 -1803.03 4161.78 4188.08 0.05 
2032 1 -0.422467 0.0465244 6.99682 0 0 0 1.15672 -302.125 -333.327 0 -0.0420737 -39.8079 5672.86 1259.79 -199.496 0.05 
5587 1 -2.27405 0.057531 7.00735 0 0 0 51.0495 -182.822 -170.835 2.71845e+06 415199 -3.80396e+08 3340.48 5620.53 -2572.88 0.05 
4228 1 -2.03681 0.0876196 7.00414 0 0 0 119.611 -87.8968 -1.67873 -0.342746 -0.298624 -39.8079 1024.1 4523.61 4066.53 0.05 
5683 1 -1.9022 0.0559984 7.00452 0 0 0 29.2942 -108.038 -0.366956 1.05662e+06 -80889.8 32001.3 849.01 1024.46 -5107.32 0.05 
9104 1 -0.713053 0.0646212 7.00792 0 0 0 90.3362 82.6902 -192.867 -244308 156730 1.26776e+06 4323.85 8540.49 -4082.37 0.05 
11421 1 -3.46161 0.154891 7.00187 0 0 0 4539.09 66.2355 -183.077 -5.25172e+07 492671 -846333 -1617.73 -3560.93 1643.28 0.05 
1592 1 -1.43685 0.120848 7.00471 0 0 0 176.226 -86.6234 -226.293 1.59826e+07 -4.28957e+08 8.49178e+06 535.765 59.7658 -658.593 0.05 
8636 1 -0.447792 0.153147 7.00615 0 0 0 120.445 -413.901 -0.684002 0 -1.90063 -39.8079 4452.07 4363.29 3557.15 0.05 
3720 1 -0.320456 0.118496 7.00091 0 0 0 143.364 313.586 -1.43719 0 -0.792587 -39.8079 -3241.05 5521.36 1523.92 0.05 
11518 1 -3.24934 0.182977 6.99961 0 0 0 3.89561 -225.388 -229.923 1164.86 -3.62961 -39.8079 -2998.39 -2600.31 5901.16 0.05 
8568 1 -3.02178 0.186871 7.00796 0 0 0 2.90837 224.206 -0.411 17.9434 -3.93002 -39.8079 366.244 35.2228 6099.21 0.05 
11832 1 -2.5985 0.186905 7.00209 0 0 0 4.56071 99.0722 -2.75084 -1.41357 -3.93266 -39.8079 -3087.6 77.6596 2571.15 0.05 
11037 1 -1.58183 0.170058 7.00041 0 0 0 73.8741 40.2106 -118.72 -0.135231 -2.76734 -39.8079 -1760.1 3769.79 26.9101 0.05 