ITEM: TIMESTEP
450000
ITEM: NUMBER OF ATOMS
14052
ITEM: BOX BOUNDS ff pp ff
-3.75 3.75
-1 1
0 10
ITEM: ATOMS id type x y z ix iy iz vx vy vz fx fy fz omegax omegay omegaz radius 
13821 1 -1.59504 -0.509016 2.1388 0 0 0 0.275183 105.583 -171857 -0.138557 1422.96 -39.9507 4511.3 3783.37 -2558.63 0.05 
9412 1 -2.15411 -0.351414 2.13054 0 0 0 1.89464 14.6516 -171840 -0.451296 74.9851 -39.9529 -9278.38 13846.1 5701.27 0.05 
10206 1 -3.22125 0.646504 2.19718 0 0 0 223.628 -338.561 -170107 664.142 -39193.3 -39.9362 5136.14 -10974 -8981.36 0.05 
13215 1 -0.227495 -0.0936924 2.25015 0 0 0 -0.415757 615.338 -169069 0 0.369586 -39.9246 56.5582 22216.6 -6775.57 0.05 
12795 1 -2.97802 -0.320023 2.26801 0 0 0 496.068 -76.1833 -168732 7.51573 43.6661 -39.921 -10403.9 3184.62 3882.04 0.05 
4371 1 -1.71271 0.395584 2.33636 0 0 0 0.978136 -152.087 -167037 -0.173172 -162.696 -39.9083 17513.9 -2599.57 17.1685 0.05 
11397 1 -0.430409 0.755203 2.35049 0 0 0 0.381765 48.3226 -166689 0 -1.55198e+06 -39.906 9019.46 16450.5 -5556.43 0.05 
7183 1 -0.75054 -0.356294 2.36141 0 0 0 -0.775491 310.249 -166448 0 81.6003 -39.9042 -12783.2 -9045.73 -4366.71 0.05 
10576 1 -3.26515 0.232631 2.45277 0 0 0 288.587 -171.665 -164748 1617.13 -9.44839 -39.8906 -34639.3 13625.1 1203.32 0.05 
13017 1 -1.48728 -0.784876 2.50699 0 0 0 0.909248 603.98 -163153 -0.114104 5.65189e+06 -39.8079 -24189.3 -7438.98 3021.17 0.05 
12202 1 -1.69576 -0.491906 2.45998 0 0 0 179.822 82.5048 -164076 -0.167572 1002.06 -39.8897 9591.61 11592.2 3632.57 0.05 
8448 1 -0.483469 -0.793616 2.64795 0 0 0 0.508839 381.326 -159922 0 8.5574e+06 -39.8079 -5624.8 -12451.1 599.922 0.05 
13635 1 -1.11896 0.672114 2.66315 0 0 0 1.12983 -249.212 -159669 0 -83291.8 -39.8079 23219.4 1106.72 3265.97 0.05 
11202 1 -0.848062 0.254648 2.6835 0 0 0 123.447 238.648 -159224 0 -14.0424 -39.8079 -9912.06 27218.7 2176.75 0.05 
11049 1 -2.64678 -0.21857 2.75448 0 0 0 133.741 -5.57847 -157302 -1.57591 7.2832 -39.8079 18.8217 -15907.8 3665.63 0.05 
9405 1 -1.49155 0.140158 2.76097 0 0 0 152.194 300.962 -157447 -0.114965 -1.39605 -39.8079 -12606.9 -4243.76 -2423.02 0.05 
12319 1 -0.0529367 0.162333 2.75245 0 0 0 -0.207636 85.6351 -158386 0 -2.33844 -39.8079 -4133.99 98548.8 -3973.59 0.05 
12761 1 -0.541561 0.525433 2.81308 0 0 0 0.273628 -327.099 -156298 0 -2012.49 -39.8079 16792.2 -12762.6 -880.602 0.05 
13254 1 -1.96443 0.529675 2.8324 0 0 0 -0.150738 27.6342 -155765 -0.291486 -2204.92 -39.8079 -7367.64 -23625.4 3565.41 0.05 
11924 1 -1.4842 0.623861 2.82742 0 0 0 -0.0764037 -132476 -156147 -0.113487 -21019.7 -39.8079 -6970.43 -4104.63 9276.99 0.05 
11242 1 -1.16453 0.575655 2.87396 0 0 0 -0.0422323 -200.738 -155175 0 -6246.45 -39.8079 11388 -13157.8 4496.39 0.05 
12566 1 -1.89746 0.268172 2.95298 0 0 0 77.5525 -317.074 -153211 -0.252193 -17.8221 -39.8079 -16700 2013.15 5382.68 0.05 
12900 1 -3.48345 0.793243 2.97369 0 0 0 313.112 -560.231 -151839 662216 -8.40405e+06 -39.8079 -23920.6 40304.7 -3110.64 0.05 
8681 1 -0.510998 0.809907 2.92563 0 0 0 -0.925695 -857.405 -153783 0 -1.94745e+07 -39.8079 -50699.1 11980.1 1235.89 0.05 
12455 1 -2.35561 -0.305713 3.14865 0 0 0 1.67213 168.304 -148866 -0.750376 34.1469 -39.8079 7925.15 12355.5 -4376.61 0.05 
4032 1 -1.64332 0.249005 3.14353 0 0 0 0.993795 310.862 -148998 -0.151614 -12.7002 -39.8079 9126.22 20299.1 3259.07 0.05 
7677 1 -1.36622 0.534704 3.14798 0 0 0 -0.253297 -136.77 -149126 -0.0927067 -2459.33 -39.8079 -7104.88 7447.28 662.835 0.05 
11415 1 -0.873654 0.809175 3.17407 0 0 0 238.893 -1014.82 -148344 0 -1.87401e+07 -39.8079 -96357.5 -10605.3 1405.99 0.05 
10609 1 -1.77683 -0.323778 3.2055 0 0 0 1.51252 -165.219 -147349 -0.196565 46.5763 -39.8079 27672.1 -1753.56 3676.46 0.05 
8255 1 -3.29048 -0.427604 3.2368 0 0 0 175.986 68.4664 -146740 2790.96 290.585 -39.8079 -29492.7 -11449 4606.84 0.05 
13781 1 -2.52428 -0.000965829 3.34857 0 0 0 31.3856 1.24119 -144580 -1.17232 3.67592e-07 -39.8079 5489.15 -18032.1 -657.816 0.05 
6492 1 -1.69618 0.754993 3.40423 0 0 0 110.525 -203.938 -142339 -0.167708 -1.5387e+06 -39.8079 16696.9 -12891.1 2389.16 0.05 
9165 1 -2.43562 -0.768416 3.47906 0 0 0 69.1415 68.4796 -141097 -0.927191 2.70354e+06 -39.8079 -44682.4 13410.2 -3042.24 0.05 
12363 1 -3.14553 -0.411021 3.44218 0 0 0 355.596 239.597 -142172 161.795 214.668 -39.8079 8225.56 -3555.31 5490.18 0.05 
6487 1 -3.35183 -0.321769 3.47029 0 0 0 396.868 223.839 -141599 11862.6 44.9961 -39.8079 12836.7 -22377.9 -7704.65 0.05 
7639 1 -0.954682 -0.190342 3.44839 0 0 0 -1.0914 165.7 -141912 0 4.21534 -39.8079 15457.6 21674 1082.4 0.05 
13278 1 -2.04168 0.793849 3.52262 0 0 0 147.39 -1218.44 -140221 -0.346578 -8.65458e+06 -39.8079 -69159.6 7820.31 8625.9 0.05 
11852 1 -2.18192 -0.534237 3.5807 0 0 0 209.781 264.793 -138928 -0.482843 2434.41 -39.8079 11897.3 19456.2 984.161 0.05 
10766 1 -2.77193 0.0137207 3.57317 0 0 0 274.323 -645.343 -139270 -1.78034 -0.00105605 -39.8079 -41199.7 -4787.51 941.861 0.05 
12207 1 -0.638599 0.135847 3.59169 0 0 0 -0.261889 -17318 -139063 0 -1.25435 -39.8079 -20262.1 -18969.9 601.985 0.05 
3777 1 -2.73283 -0.678831 3.63319 0 0 0 477.102 46658.1 -137498 -1.79036 102482 -39.8079 2511.96 -4716.12 -2155.11 0.05 
11713 1 -2.15045 -0.262981 3.64408 0 0 0 187.819 -811.193 -137639 -0.447329 16.2697 -39.8079 12852.1 -8865.71 6541.5 0.05 
9454 1 -2.46681 -0.119233 3.64514 0 0 0 23.8613 148.175 -137789 -1.00738 0.809026 -39.8079 8704.99 5585.32 2765.96 0.05 
3037 1 -0.65525 0.0306351 3.74742 0 0 0 51.9572 -3.79083 -135437 0 -0.0118518 -39.8079 -3964.81 -4136.05 3439.81 0.05 
9289 1 -0.142833 0.316795 3.7817 0 0 0 1.1644 -131.287 -134108 0 -41.3107 -39.8079 -3624.17 -6460.88 4435.75 0.05 
10622 1 -2.52924 -0.515477 3.84339 0 0 0 149.526 3.09835 -132670 -1.18756 1628.93 -39.8079 -19546.9 30099.5 -1973.68 0.05 
9291 1 -0.582901 -0.164821 3.87995 0 0 0 0.867404 -55.9492 -132285 0 2.47017 -39.8079 9808.39 -21308.2 -682.456 0.05 
1298 1 -2.31878 -0.550265 3.95935 0 0 0 79.3297 274.931 -130642 -0.681715 3472.18 -39.8079 5833.24 8835.42 -5717.94 0.05 
6601 1 -3.0641 -0.238357 3.9595 0 0 0 222.059 156.804 -130485 38.5154 10.4864 -39.8079 1511.83 7088.19 3380.35 0.05 
8417 1 -2.52951 0.224063 3.97739 0 0 0 9.37303 66461.2 -129879 -1.18839 -8.06912 -39.8079 7807.19 -6700.52 1209.71 0.05 
11208 1 -0.922929 0.313573 4.10722 0 0 0 -0.489781 -313.998 -127289 0 -39.0866 -39.8079 -18203.6 16205.6 -2992.52 0.05 
10028 1 -3.44105 0.691855 4.10377 0 0 0 387.191 -272.041 -126502 151148 -155132 -39.8079 44558.4 21410.1 2807.04 0.05 
11214 1 -1.90657 0.798547 4.15929 0 0 0 194.512 -998.759 -125393 -0.257136 -1.08987e+07 -39.8079 -70915.1 587.244 -4847.1 0.05 
2112 1 -1.37298 -0.397608 4.22901 0 0 0 111.049 -54.5439 -124158 -0.093761 168.678 -39.8079 1233.91 1872.77 1305.06 0.05 
206 1 -2.28995 -0.759826 4.28776 0 0 0 83.4541 72.5708 -122356 -0.632901 1.8781e+06 -39.8079 -18401.5 -18084.4 1061.65 0.05 
13478 1 -2.78474 0.40727 4.33824 0 0 0 449.637 -45.6365 -121456 -1.74679 -200.607 -39.8079 -10129.5 -26863.5 2476.92 0.05 
4730 1 -2.34521 0.568798 4.34944 0 0 0 334.723 -235.076 -121644 -0.730234 -5313.47 -39.8079 20948.1 -7961.38 -4366.16 0.05 
8660 1 -2.8913 -0.775742 4.40014 0 0 0 534.999 456.172 -119849 -0.0125419 3.72874e+06 -39.8079 14477.5 -14760.4 -8301.81 0.05 
12559 1 -2.18131 -0.771692 4.4125 0 0 0 32464 51.9205 -119774 -0.482118 3.1176e+06 -39.8079 -43723.8 -25383.5 -13862.8 0.05 
9911 1 -2.30318 -0.193374 4.37384 0 0 0 90.3066 -152.24 -121287 -0.654777 4.47882 -39.8079 -9458.35 6156.14 792.257 0.05 
13047 1 -1.47137 -0.503234 4.46715 0 0 0 2.72496 121.492 -118930 -0.110965 1262.48 -39.8079 -5261.26 -2525.86 1985.84 0.05 
4350 1 -1.93853 -0.586882 4.5022 0 0 0 93.4383 630.499 -117650 -0.275454 8185.37 -39.8079 -12400.1 -42919.9 4136.68 0.05 
3659 1 -1.15938 -0.605265 4.51993 0 0 0 5.16334 430.77 -117801 0 12942.2 -39.8079 2733.13 11103 -565.496 0.05 
9947 1 -0.484484 -0.211764 4.51193 0 0 0 0.987894 -342.507 -117774 0 6.40471 -39.8079 -10103.5 12433.8 10082.9 0.05 
7680 1 -0.230754 0.660182 4.50083 0 0 0 -0.0890154 3.25213 -117826 0 -58217.1 -39.8079 -7670.81 -7350.76 -6526.56 0.05 
11268 1 -1.9323 -0.198852 4.67592 0 0 0 1.76208 -81.2142 -114222 -0.271761 4.99104 -39.8079 29864.8 -3618.73 -685.673 0.05 
12040 1 -3.18652 0.0895897 4.64082 0 0 0 471.714 -356.738 -114849 342.085 -0.320457 -39.8079 15089.1 17082 -86.3417 0.05 
7591 1 -0.677 0.715962 4.70858 0 0 0 -0.00815119 67.2608 -113236 0 -350634 -39.8079 14341 -7770.88 7549.9 0.05 
12192 1 -0.206414 0.178648 4.76279 0 0 0 2.37786 -93.6073 -112466 0 -3.31869 -39.8079 19408.4 -524.192 3250.39 0.05 
13500 1 -0.507358 -0.749611 4.80727 0 0 0 1.06112 -118915 -111014 0 1.23811e+06 -39.8079 38161.3 9002.19 3337.92 0.05 
8359 1 -2.18495 0.0520546 4.87712 0 0 0 77.7597 -401.521 -109586 -0.486428 -0.0592849 -39.8079 -5819.2 -7486.86 -11905.4 0.05 
13249 1 -1.23394 -0.746481 4.935 0 0 0 199.43 546.679 -107671 0 1.09344e+06 -39.8079 -27288.1 23601.4 -625.568 0.05 
9169 1 -1.88509 0.500979 4.89534 0 0 0 34.9853 72468.5 -109754 -0.245664 -1205.31 -39.8079 18361.9 -32131.1 19347.1 0.05 
10939 1 -2.7374 0.641656 4.89118 0 0 0 188.799 39.7749 -108479 -1.79468 -34188.6 -39.8079 3906.56 21481.6 603.853 0.05 
8437 1 -3.41149 0.827422 4.93055 0 0 0 585.259 38130.9 -108235 60505.8 -5.1204e+07 -39.8079 19327.7 -34445.8 -4832.02 0.05 
13159 1 -3.5475 0.482391 4.94573 0 0 0 929.272 -477.742 -107355 1.03502e+07 -828.089 -39.8079 -17199.1 -37408.3 -2407.07 0.05 
12032 1 -2.87461 -0.335135 5.06448 0 0 0 290.307 -84.2953 -104733 -0.567721 56.6212 -39.8079 4790.94 -28224.8 3147.42 0.05 
13964 1 -0.207495 -0.245268 5.07555 0 0 0 -1.73267 -435.101 -104936 0 11.878 -39.8079 -4294.31 -12211.4 -775.338 0.05 
6590 1 -3.55165 -0.130328 5.06803 0 0 0 761.111 131.805 -105312 1.2732e+07 1.08961 -39.8079 6267.37 -36918.6 8012.27 0.05 
9303 1 -0.349085 -0.118759 5.07054 0 0 0 0.589332 122.437 -105137 0 0.798415 -39.8079 -13928.1 -5148.38 933.195 0.05 
1859 1 -2.69867 0.257588 5.08343 0 0 0 110.629 -566.062 -104579 -1.72821 -14.7931 -39.8079 -5784.6 4348.33 5790.38 0.05 
12315 1 -3.41747 0.443357 5.06115 0 0 0 198.691 122.553 -105651 72338.1 -389.573 -39.8079 29274.3 -39488.5 7802.64 0.05 
6890 1 -2.16624 0.315235 5.13645 0 0 0 130.388 247.473 -103525 -0.46474 -40.2185 -39.8079 2141.05 14005.6 -3014.62 0.05 
4674 1 -1.59835 0.566539 5.12089 0 0 0 169.282 83.8237 -103803 -0.139405 -5040.41 -39.8079 24967.3 -9431.76 9902.63 0.05 
13236 1 -3.13583 -0.291084 5.16371 0 0 0 271.394 -26401 -102743 136.065 26.5394 -39.8079 1781.1 -1637.86 4576.29 0.05 
271 1 -3.47094 -0.158249 5.16109 0 0 0 267.636 194.947 -103281 418438 2.13471 -39.8079 -6456.94 40297.8 -4579.49 0.05 
11483 1 -1.88835 -0.683741 5.23323 0 0 0 4.93022 4887.8 -101314 -0.247361 119583 -39.8079 65648.3 -5559.14 -2364.46 0.05 
7042 1 -1.68826 0.333242 5.28178 0 0 0 223.827 -12654.7 -100089 -0.165164 -54.8059 -39.8079 -34206.3 -5516.62 3736.18 0.05 
13162 1 -0.412731 0.0452001 5.33567 0 0 0 109.41 261.21 -98328.8 0 -0.0385307 -39.8079 336.558 -9142.93 2716.89 0.05 
3372 1 -1.59221 -0.0164473 5.37368 0 0 0 4.82462 104.867 -98057.9 -0.137834 0.00182069 -39.8079 -23909.3 -10681.9 -2635.59 0.05 
8516 1 -0.701528 0.265515 5.39506 0 0 0 1.42313 -60.5683 -97581.6 0 -17.0108 -39.8079 2073.26 9071.94 8287.91 0.05 
3963 1 -0.262154 0.569785 5.38892 0 0 0 2.44269 221.942 -97608.4 0 -5437.8 -39.8079 -5048.29 -19173.1 -6525.2 0.05 
10960 1 -1.2116 0.756701 5.39128 0 0 0 595.398 -3070.79 -97761.7 0 -1.65025e+06 -39.8079 -90095.7 -10669.7 9763.8 0.05 
10345 1 -3.09042 -0.669049 5.43177 0 0 0 128.2 5019.84 -96029.9 61.1476 75879.1 -39.8079 52479.7 4063.3 -1435.06 0.05 
13612 1 -1.51777 -0.181433 5.47488 0 0 0 62.0346 -322.345 -95748.3 -0.120438 3.51603 -39.8079 -15597.4 371.408 3250.97 0.05 
4198 1 -1.48461 -0.0446023 5.45594 0 0 0 89.7897 67.2626 -96374.1 -0.113569 0.0370003 -39.8079 -21743.3 -3519.48 1061.91 0.05 
11890 1 -2.83813 0.137664 5.45656 0 0 0 451.004 -143.809 -96205.9 -1.32005 -1.31263 -39.8079 22358.7 -25560.3 3189.61 0.05 
13505 1 -0.162202 0.399827 5.47082 0 0 0 153.17 69735 -96226 0 -175.506 -39.8079 23766.4 5473.26 -5383.39 0.05 
10867 1 -3.06622 0.7885 5.47382 0 0 0 400.747 -503.305 -95278.5 39.9835 -6.69848e+06 -39.8079 -14545.6 26999.2 991.261 0.05 
13274 1 -1.3415 -0.794315 5.52825 0 0 0 153.741 224.254 -94381.9 -0.0889707 8.85243e+06 -39.8079 2351.61 -12550.2 -462.172 0.05 
9422 1 -1.45257 0.430491 5.55474 0 0 0 145.633 -279.523 -93780.3 -0.107391 -306.493 -39.8079 5125.03 2882.75 6268.6 0.05 
12344 1 -0.104802 -0.23316 5.59101 0 0 0 -0.974427 -381.27 -92491.4 0 9.54017 -39.8079 -1449.49 -3011.39 12858.7 0.05 
12661 1 -3.5316 0.281669 5.58175 0 0 0 627.794 -45.1974 -93168.8 4.85868e+06 -22.5489 -39.8079 15991.1 -5875.18 -3027.09 0.05 
4108 1 -0.716659 -0.610799 5.6429 0 0 0 8.49039 343.159 -91544.4 0 14916.5 -39.8079 23231 11283.8 -603.078 0.05 
11228 1 -0.851286 0.671263 5.65473 0 0 0 212.248 -292.371 -91138.1 0 -81156.4 -39.8079 26710.5 22515 882.167 0.05 
10294 1 -1.68146 -0.715511 5.70299 0 0 0 8.9747 -84.7564 -90196.4 -0.163022 345102 -39.8079 15261.7 -5016.74 -2015.43 0.05 
7105 1 -1.4834 -0.378352 5.68728 0 0 0 154.374 -258.265 -90828.2 -0.113328 119.925 -39.8079 15953.6 -388.134 9770.12 0.05 
10394 1 -1.97514 -0.795944 5.7237 0 0 0 455.702 924.322 -89839.8 -0.29845 9.58531e+06 -39.8079 48274.2 4032.71 470.026 0.05 
6232 1 -3.3784 -0.584062 5.74787 0 0 0 598.07 593.16 -89029.1 23744.1 7642.94 -39.8079 -27584.8 35113.1 -8282.62 0.05 
11247 1 -2.36827 -0.0819712 5.75216 0 0 0 281.584 -280.537 -89138.6 -0.77575 0.241944 -39.8079 20176.5 16917.6 2779.55 0.05 
3780 1 -0.872203 -0.0795743 5.71734 0 0 0 214.749 -236.551 -90065.6 0 0.220392 -39.8079 10985.2 15940 -3369.77 0.05 
8380 1 -0.564732 -0.679259 5.80753 0 0 0 156.055 462.153 -88010.4 0 103861 -39.8079 -75.1218 -1963.71 6907.18 0.05 
11812 1 -2.01859 -0.409719 5.85873 0 0 0 8.26129 65.9615 -86739.4 -0.328869 209.676 -39.8079 -10600.1 -24162.6 9882.96 0.05 
13755 1 -0.903026 -0.274512 5.90712 0 0 0 3.04535 472.909 -85593.1 0 19.91 -39.8079 -25575.7 30462.9 -6314.97 0.05 
4329 1 -2.28088 0.241497 5.91863 0 0 0 436.396 -111.317 -84885.3 -0.618394 -11.0989 -39.8079 -2387.67 -15375.5 689.759 0.05 
1210 1 -0.287024 0.253974 5.8751 0 0 0 0.254153 226.035 -86541 0 -13.8753 -39.8079 28407.2 -2975.74 -16011.4 0.05 
11916 1 -1.86216 0.437364 5.90748 0 0 0 70.8084 -59.1592 -85731.7 -0.234102 -348.226 -39.8079 21488.1 5883.66 -749.099 0.05 
11567 1 -2.34514 0.657724 5.88466 0 0 0 176.814 -583.415 -85965.3 -0.730109 -54159.7 -39.8079 1786.99 -21168.7 -7103.01 0.05 
13012 1 -1.04996 -0.635926 5.95217 0 0 0 394.42 185.066 -84787.3 0 29158 -39.8079 21567.3 -6382.23 -849.642 0.05 
9416 1 -3.55027 0.0583288 5.92667 0 0 0 890.543 -10.5578 -85264.2 1.18749e+07 -0.0840468 -39.8079 -16972.8 -56184.6 4454.39 0.05 
13282 1 -3.21506 0.436079 5.94069 0 0 0 370.898 -563.587 -84482.6 588.778 -339.985 -39.8079 20389 -43565.5 -11889.1 0.05 
11564 1 -3.51306 0.65673 6.01322 0 0 0 323.303 -85562.4 -82607.4 2.151e+06 -52607.1 -39.8079 261.991 23243.1 7058.2 0.05 
12952 1 -2.76101 -0.213593 6.07234 0 0 0 194.592 498.246 -81769.9 -1.79535 6.63102 -39.8079 -5596.16 13792.8 -4217.11 0.05 
8433 1 -1.98796 -0.116994 6.04438 0 0 0 90.5099 -85.5952 -82741.8 -0.307054 0.759817 -39.8079 -27629.9 -1613.83 63.4766 0.05 
13957 1 -0.598621 -0.800748 6.08601 0 0 0 -0.438965 674.339 -81583.4 0 1.21641e+07 -39.8079 59375.1 20431 -1552.29 0.05 
3281 1 -1.80451 -0.497888 6.1011 0 0 0 79.8529 308.96 -80747.1 -0.207871 1131.46 -39.8079 26017.5 -1559.52 -5358.65 0.05 
9961 1 -3.53726 -0.449704 6.09389 0 0 0 493.162 185.326 -80410.8 6.31763e+06 439.151 -39.8079 31142.8 -24806.9 -9770.97 0.05 
12325 1 -2.50921 -0.288974 6.07574 0 0 0 567.319 149.826 -81643.2 -1.12694 25.5896 -39.8079 3195.34 13151 3670.74 0.05 
7835 1 -1.02135 -0.10744 6.15264 0 0 0 265.872 325.825 -79933.1 0 0.57463 -39.8079 -18124.5 -28720.3 5095.93 0.05 
5927 1 -0.693436 -0.704189 6.21263 0 0 0 0.751385 4255.71 -78576.9 0 233513 -39.8079 45653.4 -463.853 2434.88 0.05 
13010 1 -2.88899 0.486082 6.18804 0 0 0 451.052 282.256 -78615.9 -0.0996045 -891.36 -39.8079 11212.3 -23202.4 2727.87 0.05 
11203 1 -0.298097 0.769869 6.18096 0 0 0 59.4273 37.3459 -78279 0 -2.87916e+06 -39.8079 -16840.2 -19091.4 7106.99 0.05 
6997 1 -1.25692 -0.790422 6.23738 0 0 0 7.76568 2029.73 -77910.7 -0.0775269 7.33893e+06 -39.8079 104188 -3819 10772.9 0.05 
12277 1 -2.5296 -0.699386 6.26394 0 0 0 325.726 565.493 -76782.4 -1.18868 198744 -39.8079 5654.59 -17783.4 -7973.42 0.05 
10018 1 -2.74351 -0.121927 6.25933 0 0 0 265.188 264.743 -77504.8 -1.79854 0.8714 -39.8079 -8288.21 -4563.39 -8281.17 0.05 
3539 1 -0.254479 -0.675191 6.29377 0 0 0 229.158 250.964 -76730.4 0 91542.3 -39.8079 -28886.6 8081.73 7369.33 0.05 
7469 1 -0.105025 -0.651517 6.29649 0 0 0 4.7581 46.789 -76297.7 0 45229.1 -39.8079 -2407.67 -5808.57 -2764.24 0.05 
11555 1 -0.791058 -0.55184 6.36748 0 0 0 363.825 -220.844 -74082.9 0 3597.69 -39.8079 -11791.8 -17522.3 961.235 0.05 
11344 1 -0.267154 -0.565398 6.34772 0 0 0 5.43804 -4.48872 -75193.8 0 4908.32 -39.8079 23001.7 -936.71 4012.35 0.05 
6901 1 -0.0537476 0.0372308 6.33588 0 0 0 0.461508 -3.09134 -76635.4 0 -0.021378 -39.8079 -22917.7 104160 1454.02 0.05 
13458 1 -3.34155 -0.110039 6.42723 0 0 0 181.805 -41.682 -73559 9177 0.621224 -39.8079 18407.7 -12866.5 -4957.3 0.05 
2425 1 -2.46185 0.238159 6.40519 0 0 0 66.0808 471.966 -74051.8 -0.994166 -10.4486 -39.8079 5905.47 -5917.71 7310.86 0.05 
8541 1 -1.63811 0.272716 6.44454 0 0 0 6.86351 25451 -73294.3 -0.150131 -19.2958 -39.8079 13423.6 -24549.3 -4350.63 0.05 
12466 1 -2.08206 0.54722 6.43696 0 0 0 300.262 151558 -73491 -0.380413 -3242.8 -39.8079 5353.66 -9415.89 6519.21 0.05 
2973 1 -1.87716 -0.316938 6.53932 0 0 0 120.55 77.8664 -70439.4 -0.241585 41.4125 -39.8079 -6675.36 -4118.29 2660.5 0.05 
8206 1 -1.5421 -0.601736 6.5774 0 0 0 162.591 278.151 -70272.8 -0.125806 11833.9 -39.8079 -8246.42 12291.5 -8980.09 0.05 
6813 1 -1.00674 -0.331151 6.64251 0 0 0 6.82129 -37.6128 -68184.5 0 52.8697 -39.8079 -2058.13 18839 -1325.8 0.05 
8830 1 -2.19665 -0.0717563 6.59611 0 0 0 291.125 598.303 -69213.9 -0.500613 0.159513 -39.8079 2280.84 -4759.88 -557.186 0.05 
8867 1 -3.36948 -0.00922931 6.59911 0 0 0 175.672 -142.955 -68445.3 18709.6 0.000321051 -39.8079 -12620.4 676.409 961.516 0.05 
10564 1 -1.22484 0.24877 6.6377 0 0 0 121.999 251.455 -68383.4 0 -12.6469 -39.8079 7339.68 5379.02 -3964.87 0.05 
3838 1 -2.30145 -0.658435 6.64632 0 0 0 342.245 -53.3388 -67827.3 -0.651879 55299.9 -39.8079 15741.5 -11453.5 4422.03 0.05 
11387 1 -1.74189 -0.304821 6.66612 0 0 0 147.018 12765.9 -67459.2 -0.183363 33.6276 -39.8079 60006.6 -11354 -10403.1 0.05 
3934 1 -3.39493 -0.643692 6.73164 0 0 0 5463.82 5286.89 -64673 37486.8 36199.5 -39.8079 15707.4 -36673.4 -4753.8 0.05 
8337 1 -3.09163 -0.548095 6.69721 0 0 0 399.868 1113.88 -66451.4 62.4643 3306.98 -39.8079 -1720.62 -405.405 2440.86 0.05 
8625 1 -2.23096 0.940444 6.72147 0 0 0 106.049 -84185 -66987.1 -0.545092 -2.13744e+12 -39.8079 7015.79 4767.2 -25241.5 0.05 
725 1 -2.28226 0.132351 6.7521 0 0 0 297.69 344.922 -65555.7 -0.620567 -1.14792 -39.8079 19882.6 26346.3 9850.67 0.05 
834 1 -1.17677 0.115412 6.78212 0 0 0 163.744 457.692 -65339.9 0 -0.726449 -39.8079 -44643.6 29238.6 -11075.7 0.05 
3415 1 -0.413429 -0.432255 6.83909 0 0 0 133.533 -116.891 -63586.4 0 316.672 -39.8079 655.04 -16201.2 2908.1 0.05 
8185 1 -2.06727 0.213905 6.85191 0 0 0 16.6738 -224.507 -63628.2 -0.367571 -6.67032 -39.8079 -18167.9 15718.5 5042.03 0.05 
12191 1 -2.88677 0.642515 6.89507 0 0 0 437.817 -172.607 -61834.3 -0.179642 -35021.4 -39.8079 7890.24 -8473.14 6116.72 0.05 
14013 1 -3.30279 -0.803645 7.00187 0 0 0 7.26684 1606.11 2.49441 2.36883e+06 3.11405e+06 299233 -741.937 0.224435 3185.68 0.05 
196 1 -3.09802 -0.792708 7.00815 0 0 0 2.00642 2005.52 -169.866 1.02808e+06 -6.23048e+06 597500 -10961.5 454.909 2777.92 0.05 
12327 1 -1.10085 -0.807627 7.00055 0 0 0 2.87484 757.781 2.4017 1.03756e+06 1.44197e+07 772632 -5323.91 133.699 3964.89 0.05 
6695 1 -0.781352 -0.808222 7.00083 0 0 0 0.417372 780.819 -2.82584 -1.1466e+07 -5.70005e+08 6.27194e+06 2200.96 -2.33096 2049.3 0.05 
13221 1 -0.460245 -0.810705 6.99481 0 0 0 4.95578 937.256 -264.123 -3.45606e+06 -1.95219e+08 2.40614e+06 -6902.26 -3330.76 3227.37 0.05 
9943 1 -2.92878 -0.75902 7.00308 0 0 0 131.325 546.84 -563.781 -4.4756e+06 1.29578e+07 -711048 -1555.17 12246.6 -2145.67 0.05 
13855 1 -1.76166 -0.75186 7.00168 0 0 0 37.2146 296.305 -73.146 -500349 5.46825e+06 1.71653e+06 -3510.31 3633.02 -5398.93 0.05 
12243 1 -0.70286 -0.745782 6.9978 0 0 0 79.316 269.036 -334.36 0 1.06372e+06 -39.8079 -5302.51 2282.97 -5424.12 0.05 
11028 1 -0.585264 -0.762468 6.99579 0 0 0 0.420769 41.063 -392.086 4.39624e+06 -1.29076e+08 -1.12233e+06 -640.241 -671.977 -875.024 0.05 
5466 1 -0.115592 -0.776404 7.00426 0 0 0 -1.06776 494.12 -133.28 0 3.8406e+06 -39.8079 -10239 -3204.55 -3795.08 0.05 
13426 1 -3.28121 -0.731085 7.00828 0 0 0 312.078 251.396 -4.70812 4.31805e+07 3.35734e+07 -1.9831e+06 -1998.04 5173.77 -2257.04 0.05 
9896 1 -3.06146 -0.700809 7.00657 0 0 0 311.188 209.734 -235.425 -4.31964e+06 4.53356e+06 -1.30967e+08 -410.47 -899.051 -3408.91 0.05 
11386 1 -2.47691 -0.71309 7.00119 0 0 0 282.253 262.412 -428.303 -1.42773e+06 1.02615e+06 -143208 376.097 1489.28 -878.602 0.05 
11448 1 -3.34655 -0.658259 7.00247 0 0 0 424.029 157.708 -342.008 3.64394e+07 5.12473e+07 -705085 -6787.72 -6544.74 -85.3474 0.05 
9043 1 -2.27211 -0.662254 6.99948 0 0 0 336.645 8.46206 -308.279 -981481 1.41362e+07 -787273 -496.369 -2753.99 -197.867 0.05 
13214 1 -1.69716 -0.637095 7.00591 0 0 0 337.287 266.374 -158.344 -722088 610354 -737520 1748.11 2151.13 6002.61 0.05 
13698 1 -0.539993 -0.632542 6.99753 0 0 0 356.351 -24.4894 -236.831 0 26572.7 -39.8079 4820.93 -151.606 707.627 0.05 
3890 1 -3.44852 -0.604458 7.001 0 0 0 458.35 29.6367 -365.694 -2.67194e+06 2.27527e+07 1.77354e+06 4213.42 12947.5 1792.42 0.05 
14036 1 -2.36678 -0.625021 6.99846 0 0 0 394.119 174.235 -246.798 -0.772716 21681.7 -39.8079 -2810.68 10591.6 -5057.98 0.05 
9387 1 -1.87983 -0.628964 6.9976 0 0 0 362.588 410.274 -203.909 -0.242948 24109.6 -39.8079 -10148.1 -3104.27 4983.85 0.05 
13329 1 -1.32279 -0.591502 7.00407 0 0 0 430.604 256.372 -0.00479024 -0.0862657 9166.97 -39.8079 -1941.81 4204.42 -4716.37 0.05 
5912 1 -0.350153 -0.593421 7.00089 0 0 0 423.986 404.225 -70.2555 0 9612.18 -39.8079 -8306.81 7485.19 2955.8 0.05 
11316 1 -2.8075 -0.55492 7.00161 0 0 0 287.696 210.03 -3.932 -1.63231 3857.71 -39.8079 -3944.5 4585.05 -5793.04 0.05 
11479 1 -2.45407 -0.531971 6.99849 0 0 0 304.575 210.804 -310.353 -2.36684e+06 -3.22531e+08 -7.05724e+06 -3092.25 -6213.26 6353.8 0.05 
3581 1 -1.73766 -0.533475 7.00671 0 0 0 306.571 258.364 -385.235 -0.181842 2394.34 -39.8079 -8983.15 2409.56 2379.19 0.05 
12594 1 -0.809898 -0.546443 7.00395 0 0 0 299.982 -32.1002 -327.74 -921077 455467 -673810 2987.05 6951.77 2196.48 0.05 
10556 1 -0.704598 -0.535825 7.00663 0 0 0 305.698 258.168 -248.265 -419951 -907754 1.34518e+06 2142.12 -1198.64 262.864 0.05 
9307 1 -0.255633 -0.527281 6.99937 0 0 0 289.382 485.804 -288.794 0 2093.99 -39.8079 549.015 3441.22 1945.48 0.05 
12205 1 -3.11703 -0.50244 7.00149 0 0 0 227.143 83.2469 -313.524 -471217 -209472 -626485 914.764 5077.08 4645.24 0.05 
7966 1 -2.01811 -0.514647 7.00005 0 0 0 271.075 398.971 -67.7064 -0.328512 1600.75 -39.8079 -2696.06 2518.34 -512.502 0.05 
10984 1 -1.49941 -0.50469 6.99545 0 0 0 245.298 154.42 -394.368 139245 403478 -1.75504e+06 -3653.75 4193.06 572.316 0.05 
13525 1 -1.36883 -0.485918 7.00836 0 0 0 215.016 323.074 -55.4559 -676597 -590054 -260309 -3525.75 1956.63 4200.46 0.05 
5517 1 -3.34479 -0.433838 6.99995 0 0 0 6859.26 -3.4527 -1.86599 -4.92213e+07 -809190 -2.52371e+06 2.97748 -7699.19 3127.32 0.05 
6295 1 -3.22104 -0.468055 7.00422 0 0 0 127.988 325.599 -202 661.471 624.633 -39.8079 -7466.71 412.582 5921.79 0.05 
13644 1 -2.15622 -0.467274 6.99801 0 0 0 112.628 316.799 -175.674 -0.453605 615.214 -39.8079 4976.36 364.967 10131.3 0.05 
7434 1 -1.8231 -0.438231 7.00564 0 0 0 24.1708 10143.6 -248.318 -331945 -1.22161e+08 -555278 1353.96 2627.91 -2314.87 0.05 
7418 1 -1.68382 -0.446133 6.99432 0 0 0 0.857051 282.349 -286.097 -0.16376 410.473 -39.8079 -676.399 -2792.98 1280.38 0.05 
3483 1 -0.637396 -0.469399 7.00933 0 0 0 134.293 134.022 -6.78534 419951 910916 -1.34526e+06 -4310.73 1511.14 2240.84 0.05 
6072 1 -3.06714 -0.414545 7.00414 0 0 0 4.38207 64.5338 -100.11 909820 13774 81711.7 -390.846 -4182.24 1270.34 0.05 
11339 1 -2.07374 -0.369971 7.00081 0 0 0 2.733 298.968 -313.688 3.7641e+06 -1.68059e+08 6.42765e+06 194.655 685.989 -3749.51 0.05 
12492 1 -1.42302 -0.399216 7.00149 0 0 0 0.290928 283.972 -444.798 -0.102059 173.596 -39.8079 -5414.35 134.491 4899.75 0.05 
2539 1 -1.16145 -0.406582 7.00887 0 0 0 3.80355 190.383 -4.50642 0 198.138 -39.8079 -1824.42 -106.588 -5974.81 0.05 
6261 1 -0.77593 -0.368965 6.99301 0 0 0 0.618799 44.0653 -308.55 0 101.736 -39.8079 1389.95 3757.27 2231.41 0.05 
11157 1 -0.354908 -0.407422 7.0011 0 0 0 10.0159 254.09 -210.88 4.27377e+06 -1.10171e+08 1.38858e+06 -2164.44 -5826.05 6386.46 0.05 
12860 1 -0.239972 -0.40252 7.00327 0 0 0 3.75714 471.621 -1.0568 0 184.182 -39.8079 -3509.92 38.6517 -988.115 0.05 
10862 1 -2.83013 -0.320679 7.00938 0 0 0 228.054 182.46 -256.411 -2.16215e+06 8.67222e+07 2.49744e+06 -1030.47 -5204.44 -8020.89 0.05 
3298 1 -2.39994 -0.348035 7.00301 0 0 0 68.4016 -175.187 -207.17 -3.2905e+06 -1.35373e+08 4.56048e+06 825.348 5043.59 -807.027 0.05 
13080 1 -1.62683 -0.323239 7.00378 0 0 0 197.668 304.259 -0.948775 698752 -1.72382e+06 -217319 -4243.39 1324.65 -6845.04 0.05 
11927 1 -1.2611 -0.327469 7.00102 0 0 0 187.893 147.258 -4.54993 -444031 8.6745e+07 -780552 -1505.34 1447.44 -3535.85 0.05 
11626 1 -3.32532 -0.29278 7.00582 0 0 0 298.903 -133.904 -267.04 -3.01141e+06 -1.8122e+08 -2.43512e+06 5714.11 -2917.08 -6134.79 0.05 
3086 1 -3.06067 -0.308525 7.00911 0 0 0 258.047 76.6888 -347.064 36.245 35.8388 -39.8079 -6271.32 5494.68 -4723.38 0.05 
246 1 -1.97229 -0.303935 7.0075 0 0 0 256.742 106.341 -40.3522 -1.96124e+06 6.1374e+07 -2.13166e+06 -2117.39 2970.16 -3978.81 0.05 
13413 1 -0.749158 -0.269502 7.00723 0 0 0 335.205 54.7601 -74.4822 -145548 1.27591e+06 -43401.8 5014.43 1408.04 -114.734 0.05 
11335 1 -0.148875 -0.27544 7.01011 0 0 0 8.18101 421.739 -368.81 6.34486e+06 2.95201e+08 4.58737e+06 -12687.7 -767.14 -2251.46 0.05 
13443 1 -2.61927 -0.230881 7.00036 0 0 0 314.448 103.089 -303.227 -3.89801e+06 -1.46195e+08 2.76822e+06 -5174.64 -1751.85 6993.16 0.05 
4622 1 -1.81716 -0.214868 7.01009 0 0 0 246.191 5.65833 -4.21587 -0.213301 6.79288 -39.8079 703.339 918.293 5645.47 0.05 
11055 1 -1.5821 -0.221867 7.00746 0 0 0 283.25 333.319 -126.541 -0.135297 7.74627 -39.8079 -9347.46 5214.08 4290.48 0.05 
9031 1 -1.07125 -0.252274 7.00494 0 0 0 334.635 289.242 -1.98661 -107891 335003 -675725 -2033.82 1873.87 5464.21 0.05 
8291 1 -0.433276 -0.223942 7.00677 0 0 0 295.137 -352.942 -242.907 0 8.05101 -39.8079 1164.06 -4762.89 4454.55 0.05 
10082 1 -0.0747111 -0.243438 7.00063 0 0 0 4.10347 54413.3 -105.016 4.19059e+06 -8.16993e+08 -1.66181e+07 -45695.3 -2230.42 -26314.5 0.05 
10863 1 -3.45065 -0.176343 6.99793 0 0 0 4349.34 -13.0046 -473.996 -5.09953e+07 -1.98624e+06 1.00047e+06 -6438.02 -1547.7 5986.12 0.05 
11894 1 -3.17188 -0.175906 7.00148 0 0 0 98.657 119.478 -8.1515 1.79527e+06 1.07103e+08 -2.44458e+06 -1436.98 523.285 1385.76 0.05 
12122 1 -0.561076 -0.190184 6.99186 0 0 0 174.222 -278.64 -438.256 0 4.20196 -39.8079 1537.8 4115.01 1475.05 0.05 
13658 1 -0.159183 -0.167565 6.99404 0 0 0 9.90508 172.874 -336.095 1.70847e+06 1.75607e+08 4.28279e+06 294.661 -2257.3 -5139.61 0.05 
12127 1 -2.82773 -0.110551 7.00428 0 0 0 0.658219 -16.5174 -176.056 -1.45128 0.630737 -39.8079 -349.767 7175.76 -685.997 0.05 
7242 1 -1.01373 -0.154594 7.00081 0 0 0 2.10499 301.785 -440.675 0 1.96479 -39.8079 -4537.36 4110.27 -3968.13 0.05 
6839 1 -2.93467 -0.0560721 7.00058 0 0 0 91.9205 286.016 -1.0319 2.45501 0.0744528 -39.8079 -1689.84 3566.96 -6522.54 0.05 
8449 1 -2.52261 -0.0607241 7.00709 0 0 0 162.811 -4.52052 -328.312 -1.16723 0.0951297 -39.8079 -1837.05 8846.9 -3745.01 0.05 
9952 1 -1.27374 -0.0748915 7.00528 0 0 0 84.0763 1.56742 -1.39543 -0.0796493 0.182269 -39.8079 475.418 3136.13 -2102.83 0.05 
13065 1 -0.445878 -0.075813 7.0008 0 0 0 60.1186 -390.178 -1.95426 0 0.18937 -39.8079 5055.88 2363.08 -659.839 0.05 
11753 1 -2.68105 -0.00686867 7.00227 0 0 0 159.974 -209.428 -272.824 1.43856e+07 8.98375e+06 -3.18028e+08 5183.53 6176.32 3191.29 0.05 
13038 1 -2.38096 -0.0450994 7.00613 0 0 0 161.536 -159.201 -291.603 -758080 37685.2 160630 8607.22 7012.91 1993.51 0.05 
9721 1 -2.21088 -0.0459193 6.99897 0 0 0 124.457 -77.1692 -296.335 -0.51852 0.0404285 -39.8079 7641.43 6678.46 742.105 0.05 
11177 1 -1.65631 -0.0130646 6.998 0 0 0 137.211 56.817 -271.237 -1.21343e+07 -8.79899e+08 3.44999e+07 -2764.08 12341.9 -176.578 0.05 
13866 1 -0.8186 -0.0106705 7.00998 0 0 0 182.547 -34.6982 -117.146 0 0.000496316 -39.8079 6114.23 3039.33 2960.67 0.05 
10773 1 -0.271438 -0.0379463 6.99887 0 0 0 125.834 285.341 -136.866 0 0.0226477 -39.8079 1343.81 7969.96 -5896.34 0.05 
9438 1 -3.4402 0.0210279 7.00165 0 0 0 4551.36 -61.979 -189.184 -6.29785e+07 -2.44539e+06 -3.03349e+08 -1336.81 -8129.79 -2719.43 0.05 
4323 1 -2.61729 0.0277447 6.96323 0 0 0 162.972 106.894 -61249.1 -2.07178e+07 2.33099e+06 6.82659e+08 -11370.3 25994.6 -11685.6 0.05 
1157 1 -1.05122 0.0251518 7.00781 0 0 0 115.395 327.817 -0.86644 0 -0.00653697 -39.8079 -1803.03 4161.78 4188.08 0.05 
2032 1 -0.422463 0.0453159 6.99549 0 0 0 1.15672 -302.125 -333.327 0 -0.0388321 -39.8079 5672.86 1259.79 -199.496 0.05 
5587 1 -2.27384 0.0568082 7.00634 0 0 0 52.0783 -180.287 -263.634 -0.607382 -0.0774943 -39.8079 -34.4933 5173.72 -2622.53 0.05 
4228 1 -2.03633 0.0875098 7.00413 0 0 0 119.851 20.0243 -2.1104 -0.342371 -0.29744 -39.8079 402.337 4506.62 -491.243 0.05 