ITEM: TIMESTEP
230000
ITEM: NUMBER OF ATOMS
14052
ITEM: BOX BOUNDS ff pp ff
-3.75 3.75
-1 1
0 10
ITEM: ATOMS id type x y z ix iy iz vx vy vz fx fy fz omegax omegay omegaz radius 
13821 1 -1.59505 -0.511338 5.91965 0 0 0 0.275183 105.575 -171857 -0.138558 1493.55 -39.8079 4511.3 3783.37 -2558.63 0.05 
9412 1 -2.15415 -0.351737 5.91102 0 0 0 1.89465 14.6512 -171840 -0.451341 75.4046 -39.8079 -9278.38 13846.1 5701.27 0.05 
10206 1 -3.22617 0.653949 5.93952 0 0 0 223.624 -338.325 -170107 731.519 -48520 -39.8079 5136.14 -10974 -8981.36 0.05 
12795 1 -2.98893 -0.318347 5.98011 0 0 0 496.068 -76.1835 -168732 9.46318 42.4268 -39.8079 -10403.9 3184.62 3882.04 0.05 
13215 1 -0.227486 -0.10723 5.96966 0 0 0 -0.415757 615.338 -169069 0 0.570981 -39.8079 56.5582 22216.6 -6775.57 0.05 
4371 1 -1.71274 0.39893 6.01118 0 0 0 0.978137 -152.086 -167037 -0.173179 -172.712 -39.8079 17513.9 -2599.57 17.1685 0.05 
7183 1 -0.750523 -0.363119 6.02327 0 0 0 -0.775491 310.248 -166448 0 91.8756 -39.8079 -12783.2 -9045.73 -4366.71 0.05 
11397 1 -0.430418 0.754049 6.01765 0 0 0 0.381765 56.5467 -166689 0 -1.48064e+06 -39.8079 9019.46 16450.5 -5556.43 0.05 
13017 1 -1.4873 -0.797745 6.09636 0 0 0 0.909249 561.578 -163153 -0.114108 1.04742e+07 -39.8079 -24189.3 -7438.98 3021.17 0.05 
12202 1 -1.69972 -0.493721 6.06964 0 0 0 179.822 82.4993 -164076 -0.168858 1039.54 -39.8079 9591.61 11592.2 3632.57 0.05 
10576 1 -3.2715 0.236408 6.07722 0 0 0 288.578 -171.664 -164748 1849.67 -10.1218 -39.8079 -34639.3 13625.1 1203.32 0.05 
8448 1 -0.48348 -0.80142 6.16623 0 0 0 0.508839 324.498 -159922 0 1.25825e+07 -39.8079 -5624.8 -12451.1 599.922 0.05 
11049 1 -2.64973 -0.218447 6.21513 0 0 0 133.741 -5.5785 -157302 -1.5855 7.26645 -39.8079 18.8217 -15907.8 3665.63 0.05 
11202 1 -0.850778 0.249398 6.18643 0 0 0 123.447 238.648 -159224 0 -12.7895 -39.8079 -9912.06 27218.7 2176.75 0.05 
13635 1 -1.11898 0.677591 6.17588 0 0 0 1.12983 -248.72 -159669 0 -98604 -39.8079 23219.4 1106.72 3265.97 0.05 
11924 1 -1.4842 -0.278721 6.26262 0 0 0 0.0425373 -132709 -156145 -0.113487 21.4232 -39.8079 -713.479 -4098.91 8296.87 0.05 
9405 1 -1.49489 0.136649 6.22484 0 0 0 152.075 67.4589 -157450 -0.115646 -1.27982 -39.8079 -6349.9 -4238.04 -3403.14 0.05 
12319 1 -0.0529321 0.160449 6.23694 0 0 0 -0.207636 85.6351 -158386 0 -2.24257 -39.8079 -4133.99 98548.8 -3973.59 0.05 
13254 1 -1.96442 0.529067 6.25923 0 0 0 -0.150736 27.6461 -155765 -0.291484 -2176.15 -39.8079 -7367.64 -23625.4 3565.41 0.05 
12761 1 -0.541567 0.532629 6.25164 0 0 0 0.273628 -327.087 -156298 0 -2350.66 -39.8079 16792.2 -12762.6 -880.602 0.05 
12566 1 -1.89917 0.275147 6.32361 0 0 0 77.5525 -317.074 -153211 -0.25311 -20.1317 -39.8079 -16700 2013.15 5382.68 0.05 
11242 1 -1.16453 0.58007 6.2878 0 0 0 -0.0422323 -200.702 -155175 0 -6941.47 -39.8079 11388 -13157.8 4496.39 0.05 
12900 1 -3.4903 0.804951 6.31414 0 0 0 309.012 -498.205 -151839 859102 -1.50555e+07 -39.8079 -23920.6 40304.7 -3110.64 0.05 
8681 1 -0.510978 0.827117 6.30885 0 0 0 -0.925695 -679.412 -153783 0 -5.03074e+07 -39.8079 -50699.1 11980.1 1235.89 0.05 
12455 1 -2.35564 -0.309415 6.42371 0 0 0 1.67213 168.304 -148866 -0.750448 36.3912 -39.8079 7925.15 12355.5 -4376.61 0.05 
4032 1 -1.64335 0.242166 6.42148 0 0 0 0.993796 310.862 -148998 -0.15162 -11.2337 -39.8079 9126.22 20299.1 3259.07 0.05 
8255 1 -3.29435 -0.42911 6.46508 0 0 0 175.97 68.4648 -146740 3041 298.773 -39.8079 -29492.7 -11449 4606.84 0.05 
10609 1 -1.77686 -0.320143 6.44719 0 0 0 1.51252 -165.219 -147349 -0.196578 43.7567 -39.8079 27672.1 -1753.56 3676.46 0.05 
7677 1 -1.36622 0.537712 6.42876 0 0 0 -0.253296 -136.756 -149126 -0.0927059 -2626.73 -39.8079 -7104.88 7447.28 662.835 0.05 
11415 1 -0.87891 0.829787 6.43763 0 0 0 238.893 -823.287 -148344 0 -5.87812e+07 -39.8079 -96357.5 -10605.3 1405.99 0.05 
13781 1 -2.52497 -0.000993135 6.52933 0 0 0 31.3856 1.24119 -144580 -1.17443 3.9966e-07 -39.8079 5489.15 -18032.1 -657.816 0.05 
9165 1 -2.43714 -0.769758 6.58319 0 0 0 69.1415 53.3702 -141097 -0.93095 2.86535e+06 -39.8079 -44682.4 13410.2 -3042.24 0.05 
12363 1 -3.15335 -0.416292 6.56996 0 0 0 355.595 239.596 -142172 186.231 236.216 -39.8079 8225.56 -3555.31 5490.18 0.05 
7639 1 -0.954658 -0.193988 6.57045 0 0 0 -1.0914 165.7 -141912 0 4.53389 -39.8079 15457.6 21674 1082.4 0.05 
6492 1 -1.69862 0.759382 6.53569 0 0 0 110.525 -194.79 -142339 -0.168498 -1.84367e+06 -39.8079 16696.9 -12891.1 2389.16 0.05 
6487 1 -3.36056 -0.326694 6.58546 0 0 0 396.796 223.839 -141599 14825.5 48.9694 -39.8079 12836.7 -22377.9 -7704.65 0.05 
13278 1 -2.04492 0.819808 6.60749 0 0 0 147.39 -1119.92 -140221 -0.349156 -3.32499e+07 -39.8079 -69159.6 7820.31 8625.9 0.05 
11852 1 -2.18654 -0.540062 6.63712 0 0 0 209.781 264.779 -138928 -0.488328 2766.09 -39.8079 11897.3 19456.2 984.161 0.05 
11713 1 -2.15458 -0.245134 6.67215 0 0 0 187.819 -811.193 -137639 -0.451808 11.8497 -39.8079 12852.1 -8865.71 6541.5 0.05 
3777 1 -2.74333 -0.181277 6.65815 0 0 0 477.102 -46658.1 -137498 -1.79846 3.50471 -39.8079 2511.96 -4716.12 -2155.11 0.05 
9454 1 -2.46734 -0.122493 6.6765 0 0 0 23.8613 148.175 -137789 -1.00879 0.884932 -39.8079 8704.99 5585.32 2765.96 0.05 
10766 1 -2.77797 0.0279182 6.6371 0 0 0 274.323 -645.343 -139270 -1.76687 -0.00895434 -39.8079 -41199.7 -4787.51 941.861 0.05 
12207 1 -0.638593 0.516842 6.65106 0 0 0 -0.261889 -17318 -139063 0 -1676.48 -39.8079 -20262.1 -18969.9 601.985 0.05 
3037 1 -0.656393 0.0307185 6.72703 0 0 0 51.9572 -3.79083 -135437 0 -0.0119495 -39.8079 -3964.81 -4136.05 3439.81 0.05 
9289 1 -0.142859 0.319683 6.73207 0 0 0 1.1644 -131.286 -134108 0 -43.4121 -39.8079 -3624.17 -6460.88 4435.75 0.05 
10622 1 -2.53253 -0.515545 6.76213 0 0 0 149.526 3.08951 -132670 -1.19775 1631.26 -39.8079 -19546.9 30099.5 -1973.68 0.05 
9291 1 -0.58292 -0.16359 6.79023 0 0 0 0.867404 -55.9492 -132285 0 2.40427 -39.8079 9808.39 -21308.2 -682.456 0.05 
8417 1 -2.52971 -0.657078 6.83473 0 0 0 9.37304 -66461.2 -129879 -1.18903 53145.1 -39.8079 7807.19 -6700.52 1209.71 0.05 
1298 1 -2.32053 -0.556314 6.83346 0 0 0 79.3297 274.911 -130642 -0.684804 3982.09 -39.8079 5833.24 8835.42 -5717.94 0.05 
6601 1 -3.06899 -0.241807 6.83017 0 0 0 222.059 156.804 -130485 41.9805 11.1611 -39.8079 1511.83 7088.19 3380.35 0.05 
10028 1 -3.44956 0.69783 6.88681 0 0 0 386.247 -271.112 -126502 199908 -188731 -39.8079 44558.4 21410.1 2807.04 0.05 
11208 1 -0.922919 0.320481 6.90758 0 0 0 -0.489781 -313.998 -127289 0 -44.0114 -39.8079 -18203.6 16205.6 -2992.52 0.05 
11214 1 -1.91085 0.819548 6.91793 0 0 0 194.512 -891.007 -125393 -0.2595 -3.27742e+07 -39.8079 -70915.1 587.244 -4847.1 0.05 
1680 1 -1.26735 -0.927938 7.00983 0 0 0 3.01767 -70443 1.02218 -0.0788342 3.17771e+11 -39.8079 -55045.4 39.0952 408.711 0.05 
14013 1 -3.30285 -0.837689 7.00185 0 0 0 0.0335111 1411.9 -0.0987782 3680.42 9.45519e+07 -39.8079 -957.997 4.39134 3796.95 0.05 
12327 1 -1.10086 -0.822599 7.00053 0 0 0 0.0310065 609.897 -0.814458 -134773 5.7324e+07 1.00954e+06 -5278.28 -11.5048 4201.21 0.05 
6695 1 -0.781351 -0.829483 7.00087 0 0 0 0.0781568 894.436 -0.798334 0 5.77409e+07 -39.8079 -1135.51 -2.30872 278.721 0.05 
13221 1 -0.460279 -0.83236 7.00073 0 0 0 0.579774 879.42 -273.33 234032 6.32507e+07 1.60073e+06 -9788.73 -3164.64 -506.077 0.05 
206 1 -2.29178 -0.761309 6.9796 0 0 0 85.1646 63.5347 -122441 -2.37615e+07 -2.30502e+07 1.45034e+09 -17259.7 -19219.9 1048.56 0.05 
13855 1 -1.76252 -0.75669 7.00277 0 0 0 39.9048 273.382 0.107412 -7.98438e+06 -4.23693e+08 -1.75131e+06 -1523.23 646.606 -5765.93 0.05 
12243 1 -0.704524 -0.752056 7.00116 0 0 0 73.0282 300.499 0.0980426 0 1.36584e+06 -39.8079 -5580.98 336.284 -7901.36 0.05 
11028 1 -0.58525 -0.767402 7.00049 0 0 0 -0.984516 236.088 -0.455912 0 2.58796e+06 -39.8079 -3918.86 -7.42684 5029.43 0.05 
5466 1 -0.115561 -0.784764 7.00644 0 0 0 -0.314561 364.217 -1.02515 0 5.62237e+06 -39.8079 -6037.33 -0.618337 -1906.12 0.05 
13426 1 -3.28662 -0.735274 7.00829 0 0 0 232.605 167.374 1.12888 2564.03 709329 -39.8079 -1244.43 3585.95 138.524 0.05 
11386 1 -2.48316 -0.718825 7.00766 0 0 0 283.658 259.612 -189.377 -1.05203 388045 -39.8079 1642.02 7663.69 -797.809 0.05 
11448 1 -3.35441 -0.659183 7.00548 0 0 0 340.21 0.426913 -0.21998 12662.7 56528.6 -39.8079 0.00307506 769.836 372.976 0.05 
9043 1 -2.27952 -0.662278 7.00118 0 0 0 336.617 0.482748 -4.94747 -0.616246 61940.4 -39.8079 234.082 1460.24 -132.83 0.05 
9387 1 -1.88782 -0.63555 7.00195 0 0 0 367.992 59.4682 -2.55477 4.51958e+06 -2.22531e+08 2.37583e+06 -3401.29 2258.84 -4119.91 0.05 
7434 1 -1.82365 -0.665144 7.00844 0 0 0 15.1781 10622.4 -7.56361 1.69114e+07 -7.604e+08 2.02944e+07 4359.01 566.429 -1134.53 0.05 
13214 1 -1.70461 -0.641961 7.00819 0 0 0 340.076 -5.40408 -0.294569 -116158 353156 -207265 81.3517 598.738 2111.77 0.05 
13698 1 -0.547911 -0.636169 7.00081 0 0 0 363.435 102.226 -5.03576 -888667 7.83417e+07 -4.10994e+06 -1717.26 2478.02 1892.55 0.05 
12790 1 -0.103545 -0.661982 7.01029 0 0 0 150525 1.77718 -0.996554 -2.26752e+09 6.80878e+07 -1.01732e+07 -1323.65 -115186 -1673.94 0.05 
3890 1 -3.45836 -0.604567 7.00435 0 0 0 444.126 0.0987457 -0.0222284 269217 12714.5 -39.8079 1.2815 3947.3 792.38 0.05 
14036 1 -2.37545 -0.628863 7.00104 0 0 0 394.27 174.628 -77.2311 -0.790554 24043.7 -39.8079 -5492.48 5111.42 -5038.93 0.05 
13329 1 -1.33226 -0.596139 7.00407 0 0 0 431.973 46.1262 0.132116 -0.0876221 10283.5 -39.8079 -1454.34 4203.75 -11198.5 0.05 
5912 1 -0.359488 -0.601791 7.00152 0 0 0 425.28 276.015 -1.88954 -747195 6.48991e+07 -2.30303e+06 -3540.66 4435.27 5871.25 0.05 
11316 1 -2.81386 -0.55886 7.00169 0 0 0 292.935 26.6401 -1.91984 1.49227e+06 8.19571e+07 -2.99719e+06 -753.887 4743.23 -3449.11 0.05 
11479 1 -2.46069 -0.536817 7.00531 0 0 0 299.364 220.071 -309.647 -0.991117 2575.64 -39.8079 -3219.48 -6393.67 6509.08 0.05 
12594 1 -0.816535 -0.55001 7.0068 0 0 0 303.89 279.529 -0.794511 0 3452.3 -39.8079 -177.296 4239.65 4811.8 0.05 
10556 1 -0.711371 -0.541992 7.00977 0 0 0 309.65 352.572 -0.52161 -380026 -476767 562495 -5177.77 3842.25 -3440.64 0.05 
9307 1 -0.262018 -0.537246 7.00187 0 0 0 288.2 403.644 0.216641 2.85169e+06 1.09503e+08 1.54176e+06 -3428.78 4731.56 -66.2195 0.05 
6295 1 -3.22385 -0.473868 7.00869 0 0 0 129.748 43.8353 -204.238 -3.63419e+06 1.07771e+08 -239430 -5353.27 431.943 5063.39 0.05 
12205 1 -3.12204 -0.503194 7.00429 0 0 0 228.548 -112.358 -76.8266 770068 18730.9 -578350 -2831.02 2294.52 813.057 0.05 
7966 1 -2.02407 -0.521381 7.00055 0 0 0 271.21 261.381 -1.14488 -0.332974 1845.69 -39.8079 -5905.43 4623.78 3846.23 0.05 
10984 1 -1.50483 -0.506991 7.00387 0 0 0 247.419 161.621 -108.77 -1.87331e+07 -2.09858e+06 -6.22666e+08 -3775.71 -99.3835 493.146 0.05 
13525 1 -1.37362 -0.49306 7.00955 0 0 0 221.394 326.37 -36.7746 -1.44567e+06 -594639 37253.4 -3608.22 2811.18 4042.2 0.05 
5517 1 -3.49801 -0.433762 6.99999 0 0 0 7100.07 -5.90423 -2.94712 -6.43889e+07 1.09083e+06 71718.6 -1.2562 -2401.36 3938.21 0.05 
13644 1 -2.15866 -0.469354 7.0016 0 0 0 110.369 295.127 -157.608 -0.456283 640.636 -39.8079 3610.94 -316.962 8389.43 0.05 
7418 1 -1.68383 -0.450925 7.00026 0 0 0 0.514568 2.61496 -265.136 -0.163765 449.438 -39.8079 5489.76 -2169.14 -97.8091 0.05 
12444 1 -0.778912 -0.434888 7.00806 0 0 0 0.735529 -137949 -111.581 -1.03633e+06 1.72227e+09 -2.80799e+07 11993.8 -3995.79 -12963.1 0.05 
3483 1 -0.640315 -0.471818 7.0094 0 0 0 131.803 12.0109 0.239341 380026 480325 -562575 374.169 1766.22 2063.18 0.05 
6072 1 -3.06718 -0.415214 7.00636 0 0 0 0.647281 -74.0541 -100.477 40.6628 231.63 -39.8079 -2785.02 -4322.01 701.958 0.05 
11339 1 -2.07382 -0.374629 7.00597 0 0 0 2.34727 428.744 -117.105 -0.373196 112.337 -39.8079 -6443.07 -4632.08 -1266.77 0.05 
12492 1 -1.42302 -0.405464 7.00986 0 0 0 -2.51967 283.955 -209.303 3.3968e+07 3.36503e+06 -7.72712e+08 -2546.26 4834.3 4910.86 0.05 
2112 1 -1.37542 -0.396408 6.96051 0 0 0 112.212 -54.1674 -124227 -6.94393e+06 -9.31516e+06 1.41654e+09 1597.6 1355.33 1308.21 0.05 
2539 1 -1.1615 -0.407865 7.0089 0 0 0 0 0.00114931 -0.00022563 0 202.774 -39.8079 0 0 0 0.05 
6261 1 -0.775941 -0.372357 6.99981 0 0 0 0.258176 51.1862 -309.619 -769279 -9.3607e+08 1.25234e+07 -1327.27 3745.86 -39.9869 0.05 
11157 1 -0.354932 -0.41331 7.00165 0 0 0 -0.363799 253.588 -0.0297574 0 223.76 -39.8079 -2619.93 -3.18921 5536.32 0.05 
12860 1 -0.240008 -0.410218 7.00328 0 0 0 0.0777527 171.864 0.0340622 0 211.576 -39.8079 -1701.5 2.05304 -5876.28 0.05 
10082 1 -0.074746 -0.416361 7.00177 0 0 0 1.28361 -57574.4 -3.42857 1.29181e+07 8.94622e+08 741645 -43338.4 -5.17538 -26997.9 0.05 
3298 1 -2.40139 -0.352816 7.00758 0 0 0 65.2208 251.121 -207.485 -0.846631 76.8264 -39.8079 -7407.33 4969.75 -8391.18 0.05 
13080 1 -1.63049 -0.326871 7.0038 0 0 0 0.504985 62.3275 -0.465486 -34188.6 -1.86454e+08 4.16465e+06 -483.871 9.12073 3872.07 0.05 
11927 1 -1.26368 -0.325226 7.00107 0 0 0 0.226222 -336.624 -0.503232 -0.0783715 47.7496 -39.8079 1481.56 0.0700482 588.26 0.05 
246 1 -1.97802 -0.308434 7.00776 0 0 0 260.208 227.087 -0.499868 1.93796e+08 7.59374e+06 -4.45118e+06 -4401.16 1331.43 -10527.3 0.05 
13413 1 -0.751373 -0.272291 7.00884 0 0 0 1.2071 2.29603 -73.0797 283044 1.59788e+06 -76098.4 3214.25 44.7857 37.5501 0.05 
13443 1 -2.62617 -0.236878 7.00703 0 0 0 313.471 235.226 -303.185 -1.5073 10.2086 -39.8079 -8922.86 -1780.99 4818.83 0.05 
11055 1 -1.5872 -0.224933 7.00949 0 0 0 0.0299349 245.704 -0.216201 -0.13657 8.2003 -39.8079 -5405.49 -1.27591 3018.14 0.05 
9031 1 -1.07493 -0.255686 7.00496 0 0 0 -1.90739 49.9771 -0.972455 3.09467e+07 -8.64637e+08 1.56019e+07 -363.886 2.55439 783.969 0.05 
10863 1 -3.54871 -0.176187 7.00655 0 0 0 4545.78 -2.76548 -1.91746 -1.82151e+07 -1.4199e+06 -1.31218e+06 32.7518 -400.54 4770.73 0.05 
11894 1 -3.17401 -0.176288 7.00157 0 0 0 96.1515 2.2557 -1.2376 88091 1.37619e+06 -840003 -49.9154 724.105 4045.19 0.05 
4622 1 -1.82237 -0.209864 7.01014 0 0 0 16.7612 -334.168 -0.224312 3.90929e+08 1.77349e+07 6.23348e+06 1589.26 71.698 -187.052 0.05 
7242 1 -1.01376 -0.157911 7.0076 0 0 0 0.575333 0.379945 -184.543 0 2.11852 -39.8079 3269.03 5355.09 3.02773 0.05 
12122 1 -0.561726 -0.185342 7.00141 0 0 0 0.06401 -0.345366 -301.665 0 3.80963 -39.8079 -3148.77 -3017.23 2.88463 0.05 
13658 1 -0.159217 -0.165959 7.00023 0 0 0 -0.0761403 -113.649 -100.581 0 2.53237 -39.8079 -2639.43 -3401.52 -4764 0.05 
12127 1 -2.82774 -0.110175 7.00662 0 0 0 0.149023 -17.5509 -51.8904 -1.4512 0.623748 -39.8079 -1219.28 2152.68 -731.6 0.05 
6839 1 -2.93669 -0.0588885 7.0006 0 0 0 91.1857 -7.34026 -0.64511 2.61924 0.0865517 -39.8079 -34.7173 3569.02 -2026.01 0.05 
9952 1 -1.27559 -0.0710295 7.0053 0 0 0 83.8854 -335.815 -0.280605 -0.0798867 0.154539 -39.8079 779.265 3131.86 -3371.85 0.05 
13065 1 -0.446808 -0.0701493 7.00084 0 0 0 0 8.42604e-07 -0.00022563 0 0.148661 -39.8079 0 0 0 0.05 
11753 1 -2.6845 -0.00872853 7.00533 0 0 0 154.27 -29.8555 -133.991 -2.10044e+06 1.53031e+08 -2.82638e+06 3256.08 1683.71 3039.03 0.05 
13038 1 -2.38454 -0.0464766 7.01027 0 0 0 161.087 206.774 -0.712256 332511 -172435 -477683 -2297.74 5520.4 -8069.02 0.05 
9721 1 -2.21359 -0.0451156 7.00071 0 0 0 122.633 106.586 -0.219293 -0.522014 0.0383117 -39.8079 -727.851 4821.91 3058.83 0.05 
11177 1 -1.65941 -0.0166721 7.00187 0 0 0 143.567 -18.5568 -0.622496 -123641 -254448 -456554 886.874 5535.5 76.9566 0.05 
10773 1 -0.273207 -0.0433707 7.00188 0 0 0 0.335501 276.649 -136.982 0 0.0339785 -39.8079 1679.57 3050.63 -4799.96 0.05 
9438 1 -3.54341 0.0218827 7.00378 0 0 0 4830.74 4.44689 2.10974 -1.72743e+07 -56459.6 -408477 -116.196 2161.83 -1323.95 0.05 
1157 1 -1.0537 0.0220033 7.00782 0 0 0 -0.39844 0.25202 -0.33574 0 -0.00436948 -39.8079 -33.6937 -0.229989 -4.24591 0.05 
2032 1 -0.422475 0.0502767 7.00115 0 0 0 0 -3.02153e-07 -0.00022563 0 -0.053309 -39.8079 0 0 0 0.05 
5587 1 -2.27493 0.0582498 7.00885 0 0 0 49.1471 -0.000492755 -2.36974e-05 -0.609079 -0.0836974 -39.8079 0.0239871 1769.72 -1519.39 0.05 
4228 1 -2.03896 0.0882772 7.00419 0 0 0 120.187 85.6498 -0.141687 -0.344429 -0.305789 -39.8079 -568.919 4563.63 -5773.72 0.05 
5683 1 -1.90268 0.0579395 7.00453 0 0 0 24.4486 -107.775 -0.137152 523909 139807 -342871 836.496 926.515 -5256.18 0.05 
11421 1 -3.54488 0.155125 7.0034 0 0 0 4720.81 1.97341 1.56565 -3.76772e+07 579090 -886360 -51.3542 2139.63 738.793 0.05 
1592 1 -1.44001 0.11739 7.00878 0 0 0 175.767 236.509 -226.107 -0.105084 -0.768359 -39.8079 -3519.82 91.4354 5863.85 0.05 
3720 1 -0.322291 0.112848 7.00094 0 0 0 -0.642987 314.366 -1.08913 0 -0.6747 -39.8079 -3270.22 -0.33877 1866.9 0.05 
11518 1 -3.2494 0.186169 7.00375 0 0 0 0.470879 -0.242337 -231.332 1166.45 -3.87434 -39.8079 -5741.44 -2678.64 -8.76268 0.05 
8568 1 -3.02181 0.190077 7.00797 0 0 0 1.26802 -192.696 -0.129802 17.9557 -4.19293 -39.8079 -835.018 12.1587 1442.62 0.05 
11832 1 -2.59856 0.185935 7.00213 0 0 0 -8.01318e-06 -2.1855e-05 -0.00022563 -1.41377 -3.85589 -39.8079 0 0 0 0.05 
11037 1 -1.58316 0.169371 7.00255 0 0 0 74.2255 233.497 -118.877 -0.135561 -2.72674 -39.8079 -6981.03 3785.92 4127.88 0.05 
5472 1 -1.06037 0.185039 7.00206 0 0 0 -0.480115 0.438011 -0.479803 0 -3.78612 -39.8079 -36.5086 0.40685 1.12942 0.05 
8636 1 -0.449458 0.160036 7.00617 0 0 0 -1.34451 -175.952 -1.10223 -6.26759e+06 -1.93151e+08 -5.10533e+06 1685.62 -2.27582 4452.06 0.05 
13760 1 -3.58833 0.254835 7.00093 0 0 0 1403.72 -95.7932 -3.89873 9.104e+07 -1.65287e+08 -94004.3 3166.04 2044.41 369.61 0.05 
10467 1 -3.39086 0.225085 7.00623 0 0 0 0.189513 -4.66101e-05 -0.00022563 33434.5 -8.22345 -39.8079 0 0 0 0.05 
3741 1 -1.25446 0.225899 7.0102 0 0 0 0.444528 -331.801 -0.221686 -0.0772229 -8.34827 -39.8079 -7.20369 -1.50365 1997.48 0.05 
6836 1 -0.737039 0.275272 7.00358 0 0 0 0.329174 -200.019 -0.189044 0 -20.1754 -39.8079 1863.39 -3.21475 6122.28 0.05 
5181 1 -3.31333 0.346834 7.00142 0 0 0 339.054 -258.245 -1.74517 3.43714e+06 -1.78558e+08 3.15421e+06 3224.98 5779.92 -7124.53 0.05 
5457 1 -2.83112 0.322906 7.00512 0 0 0 218.922 0.138215 -27.6678 -289835 -2.51099e+06 -5.00877e+08 -1191.77 5839.28 -4940.48 0.05 
9264 1 -2.58864 0.318985 7.01012 0 0 0 195.864 -80.2893 -0.989053 -3.10088e+06 -1.14181e+08 -336884 1719.19 5307.32 -840.208 0.05 
7879 1 -2.47478 0.352366 7.0101 0 0 0 342.794 63.1941 -3.07219 2.86043e+08 181440 1.09497e+07 2409.07 4217.02 -5014.19 0.05 
13743 1 -2.13958 0.3563 7.00111 0 0 0 214.145 2.2542 -1.94637 -0.435799 -81.6091 -39.8079 48.7487 276.989 -6015.55 0.05 
12717 1 -1.96595 0.366864 7.00125 0 0 0 91.2892 -119.179 1.49588 4.69509e+08 -1.40845e+07 2.967e+06 2718.33 130.351 1793.04 0.05 
5648 1 -1.35464 0.329481 7.00357 0 0 0 -0.892267 64.2435 -5.34824 250735 -1.61351e+08 1.43621e+06 1167.19 -53.765 -8386.55 0.05 
13166 1 -1.98609 0.418015 7.00304 0 0 0 71302.6 278.917 -0.179923 -1.16638e+09 -7.28117e+06 5.09115e+06 -926.275 -57928.5 -27254.5 0.05 
11062 1 -0.771389 0.402921 7.00206 0 0 0 0.22249 -290.814 -0.61956 0 -185.512 -39.8079 2854.09 -2.63378 3931.26 0.05 
12140 1 -0.470411 0.380875 7.00346 0 0 0 -0.143833 -443.281 -0.391811 0 -125.37 -39.8079 5182.57 -4.78839 457.63 0.05 
4450 1 -3.09732 0.435118 7.00508 0 0 0 318.324 -117.98 -0.308049 908199 459104 -46720.8 -1709.49 -153.453 -559.589 0.05 
13401 1 -1.49074 0.446247 7.00672 0 0 0 -1.21437 -192.564 -141.285 -1.44569e+06 -1.25504e+08 -5.21355e+06 7618.22 446.033 -933.882 0.05 
13997 1 -1.31737 0.43676 7.0015 0 0 0 0.291073 -246.316 -0.197811 -0.0855026 -344.326 -39.8079 4166.26 15.5116 -8390.29 0.05 
12657 1 -1.2116 0.458139 7.00115 0 0 0 0.149443 -231.993 -0.112339 0 -515.76 -39.8079 996.856 -2.47231 6286.94 0.05 
13330 1 -0.0551584 0.428309 7.00397 0 0 0 0.727938 -322.146 -0.203251 0 -294.387 -39.8079 -283.101 -2.77456 2996.53 0.05 
12618 1 -3.58428 0.484314 7.00063 0 0 0 1185.46 -183.583 -1.79603 7.16334e+07 1.07224e+06 -645330 6129.98 643.964 1829.92 0.05 
2817 1 -2.63568 0.48297 7.00439 0 0 0 185.563 -233.513 -1.24099 -1.5392 -837.692 -39.8079 5470.18 -160.668 9756.99 0.05 
10857 1 -2.3854 0.479948 7.00861 0 0 0 208.251 69.2146 -0.0692351 -0.811576 -788.898 -39.8079 1172.22 -514.525 4611.46 0.05 
1235 1 -2.11835 0.524825 7.00692 0 0 0 2.27583 -68.9783 -1.60488 -0.414296 -1986.47 -39.8079 1553.09 8.07376 -2538.48 0.05 
13078 1 -1.40171 0.509351 7.00301 0 0 0 -0.46065 54.9771 -263.696 -2.56126e+06 -8.30984e+07 1.38208e+06 180.96 4517.16 1783.12 0.05 
12409 1 -0.163606 0.481583 7.00725 0 0 0 0.00492049 -89.4901 -0.0196228 0 -814.892 -39.8079 -239.633 0.847826 -3950.1 0.05 
10883 1 -3.17127 0.532794 7.00859 0 0 0 1.56575 -119.735 -2.7426 -413049 -1.21006e+08 -4.45038e+06 769.948 36.1757 -1136.9 0.05 
3048 1 -3.04698 0.570507 7.00356 0 0 0 1.50768 -180.222 -0.252801 28.4108 -5530.85 -39.8079 -1506.58 23.152 -747.033 0.05 
3352 1 -1.51551 0.553102 7.00713 0 0 0 -2.03392 -225.18 -0.117204 1.97677e+06 -9.00309e+07 2.73533e+06 4206.97 -38.7023 -4194.13 0.05 
13715 1 -1.90687 0.599797 7.0043 0 0 0 -3.17869 -85.5815 -73.5475 -369486 348086 171037 3301.19 -2187.71 -3647.38 0.05 
13544 1 -1.42288 0.608741 7.00716 0 0 0 -1.32816 -86.6376 -75.4694 1.48776e+07 4.30506e+08 -2.87232e+06 7966.56 2145.36 5529.97 0.05 
13720 1 -3.03542 0.677253 7.00918 0 0 0 320.165 -324.901 -1.1736 -6.2408e+06 -4.28528e+08 1.25492e+07 2243.36 6103.88 -4300.13 0.05 
10007 1 -2.65443 0.639015 7.00419 0 0 0 419.229 -315.976 -2.42923 -1.60069 -31760.3 -39.8079 6108.15 5255.52 -8261.48 0.05 
11300 1 -2.10362 0.64116 7.00817 0 0 0 175.115 -314.026 -3.98086 3.27138e+07 1.0667e+09 -2.48125e+07 4413.32 4361.52 -6600.91 0.05 
8166 1 -1.99929 0.638719 7.0005 0 0 0 135.428 -218.261 -0.48456 -0.314912 -31500.5 -39.8079 5032.25 4001.02 310.636 0.05 
13670 1 -1.26 0.666664 7.00023 0 0 0 0.224886 -333.239 -0.406525 -0.0779097 -70610.6 -39.8079 1502.69 -0.408066 1134.51 0.05 
5082 1 -0.782969 0.649238 7.00553 0 0 0 -0.0708252 -313.768 -0.530707 0 -42367.2 -39.8079 2508.34 0.396106 2485.1 0.05 
12413 1 -0.277157 0.637173 7.00322 0 0 0 0.470214 -32.1372 0.0847709 1.27892e+06 -5.7855e+07 387578 -15.8856 5.0736 448.589 0.05 
1098 1 -0.0776916 0.649392 7.00135 0 0 0 -0.280266 -342.391 -0.0682482 0 -42554.1 -39.8079 97.9772 0.0352206 -447.284 0.05 
11065 1 -0.676985 0.687264 7.00172 0 0 0 -0.00418018 -0.821051 -0.0177128 -27293 -544796 -114406 2.60794 -0.187166 0.0470893 0.05 
13682 1 -3.49879 0.778774 6.99961 0 0 0 216.452 -135.762 -365.183 7.36168e+06 -3.55139e+07 -2.68673e+06 -1554.06 8168.64 -2131.01 0.05 
13918 1 -3.39662 0.768237 7.00278 0 0 0 334.593 -121.181 -96.682 -77545.8 -1.21359e+07 -879239 4616.42 5026.92 -7699.78 0.05 
8765 1 -2.64729 0.742409 7.00021 0 0 0 458.574 -290.325 0.209128 -1.57757 -932306 -39.8079 6231.04 8990.58 8896.36 0.05 
5525 1 -1.71848 0.759309 7.00337 0 0 0 169.012 -74.1867 -324.74 -579895 -2.9784e+07 -1.74376e+06 1130.05 8213.12 -2822.28 0.05 
13280 1 -1.58283 0.752057 7.00241 0 0 0 65.3672 -25.9448 -3.03665 4.67435e+08 -1.73744e+07 -6.71602e+06 202.008 2037.78 -1384.89 0.05 
1151 1 -1.13884 0.740913 7.0066 0 0 0 -0.143702 -32.7099 -200.127 0 -879812 -39.8079 6297.96 1939.14 -1328.72 0.05 
12807 1 -0.281143 0.748219 7.00114 0 0 0 1.93973 -237.626 -4.86185 -760493 -6.35833e+07 -246436 1397.85 -12.1667 1711.31 0.05 
7302 1 -3.51192 0.813436 7.00739 0 0 0 400.652 -3641.55 -299.51 6.79416e+06 3.70619e+07 -66943 2348.93 4787.87 128.868 0.05 
12715 1 -3.09328 0.79483 7.00521 0 0 0 531.869 -590.138 -2.30881 -529774 -1.09744e+07 296554 4862.25 7260.13 2414.84 0.05 
12133 1 -2.35368 0.816069 7.0089 0 0 0 160.325 -3514.94 1.45228 4.77534e+06 3.0613e+08 -231036 -1725.53 4415.18 2329.66 0.05 
12721 1 -0.945827 0.827689 7.00815 0 0 0 -0.00338699 -2696.76 -196.825 -417708 -3.95957e+07 1.59539e+06 5060.93 6444.4 -565.622 0.05 
12971 1 -0.488417 0.823011 7.00819 0 0 0 0.532709 -824.692 -376.162 -116077 -3.85931e+07 -546841 5309.55 -1726.6 -645.592 0.05 
8282 1 -0.132561 0.801839 7.00935 0 0 0 0.0259048 -502.698 -0.159507 0 -1.28507e+07 -39.8079 5218.66 8.24512 -5141.88 0.05 
5196 1 -3.0484 -0.918037 7.0274 0 0 0 12.2928 -75672 1.46223 -1.02826e+07 8.79503e+10 -748043 -14375.6 18.23 -5258.31 0.05 
13501 1 -2.71689 -0.914516 7.01576 0 0 0 152.889 -157858 1.29186 -1.76711 5.75865e+10 -39.8079 6647.37 4239.13 -188.229 0.05 
3315 1 -3.52197 -0.79831 7.04712 0 0 0 314.621 4503.81 3.927 7.14041e+07 -6.34069e+07 689223 -1012.64 -43.8321 161.377 0.05 
9812 1 -3.47301 -0.799849 7.04743 0 0 0 7941.09 4381.63 6.44026 -2.81044e+08 -8.05991e+07 247789 -3028.28 -687.745 7921.56 0.05 
196 1 -3.09803 -0.835433 7.01095 0 0 0 -0.0675001 1622.39 -0.14935 1.02827e+07 -1.72339e+08 747963 -3359.69 3.48597 -3884.65 0.05 
5328 1 -2.50452 -0.813299 7.04178 0 0 0 24.3867 508.727 -132.569 -1.11313 2.33165e+07 -39.8079 -6425.42 5100.7 6678.67 0.05 
2998 1 -2.28317 -0.819516 7.03477 0 0 0 4.0516 3308.45 -190.356 -3.01629e+06 1.08823e+07 -6.72199e+08 -5837.86 -783.067 809.784 0.05 
8924 1 -2.1772 -0.831708 7.04028 0 0 0 0.766619 991.082 0.0312239 -0.477307 6.58456e+07 -39.8079 100.661 -4.72561 5943.4 0.05 
3847 1 -1.89517 -0.801942 7.02185 0 0 0 0.728655 522.229 -1.22732 -0.250967 1.29176e+07 -39.8079 -4282.22 -6.35898 3437.52 0.05 
11919 1 -1.71631 -0.834036 7.03998 0 0 0 144.374 899.153 -0.876817 154012 7.34703e+07 -688590 4309.32 4620.39 6674.75 0.05 
7511 1 -1.59546 -0.820701 7.05581 0 0 0 8.00437 752.63 0.0337953 -0.138663 3.49428e+07 -39.8079 1055.26 206.745 -73.7087 0.05 
7214 1 -1.37441 -0.824402 7.04019 0 0 0 52.8846 744.21 0.11845 -0.0939865 4.30479e+07 -39.8079 1205.58 1709.53 -4107.52 0.05 
2483 1 -1.23788 -0.799329 7.02338 0 0 0 -1.12236 116.393 -1.93799 0 1.13308e+07 -39.8079 -2908.28 1.2965 5155.5 0.05 
4837 1 -3.58196 -0.777873 7.04036 0 0 0 2139.14 205.576 6.78979 4.16538e+07 3.12689e+07 3.12158e+06 -2829.29 7236.17 4196.95 0.05 
13799 1 -3.51131 -0.789421 7.01341 0 0 0 221.713 263.183 -18.5206 6.64761e+07 6.4941e+07 -3.106e+06 -3476.05 3595.25 1060.24 0.05 
3503 1 -3.40118 -0.78315 7.03287 0 0 0 34.8709 5336.73 5.09972 5.16049e+07 -7.88529e+07 1.22407e+06 -356.343 217.713 43.0332 0.05 
10435 1 -3.40141 -0.781769 7.02073 0 0 0 113.869 211.729 -6.72084 4.5298e+07 7.0893e+07 -5.23631e+06 -1096.9 3865.52 -2085.46 0.05 
1442 1 -3.17511 -0.757848 7.02101 0 0 0 135.701 297.803 -2.12235 692052 3.65038e+06 -269316 -609.134 5237.98 -6541.1 0.05 
9943 1 -2.93182 -0.76959 7.01527 0 0 0 94.9436 480.992 -205.309 1.67335e+08 2.8566e+07 -1.71278e+09 -1261.44 6672.78 -1363.49 0.05 
8660 1 -2.90288 -0.785513 7.0369 0 0 0 389.167 426.15 -120100 2.55846e+08 2.59739e+06 2.46749e+09 13630.5 -17778.5 -7428.26 0.05 
12559 1 -2.89574 -0.772649 7.04763 0 0 0 32694.3 37.2666 -120062 -9.79098e+08 1.57125e+07 2.65927e+09 -43252.1 -27079.7 -12887.2 0.05 
3695 1 -2.81543 -0.783893 7.05281 0 0 0 207.375 310.367 -112.33 1.7272e+08 5.26957e+06 -1.17533e+09 810.214 -540.036 -9526.56 0.05 
2986 1 -2.33898 -0.774047 7.02375 0 0 0 111.751 63.8967 -224.602 2.83534e+07 3.4541e+07 -7.78554e+08 -1539.95 7747.07 -988.655 0.05 
10357 1 -2.11945 -0.752655 7.01963 0 0 0 178.944 342.888 -0.149808 -0.415372 1.39927e+06 -39.8079 688.288 4857.42 -5131.27 0.05 
1959 1 -1.47914 -0.782593 7.02117 0 0 0 91.4341 5450.85 -327.413 -1.22015e+06 -2.77823e+07 924625 -6235.73 2626.88 -155.637 0.05 
5135 1 -1.13202 -0.747901 7.0594 0 0 0 10.4822 108.081 -2.27786 1.28132e+06 3.96984e+07 -1.57534e+06 -339.503 -191.979 -181.281 0.05 
7950 1 -0.983718 -0.778119 7.02039 0 0 0 -0.953176 338.267 -1.738 -1.84027e+06 5.61751e+06 -1.14376e+06 -1433.62 32.0211 -3842.01 0.05 
1945 1 -0.921274 -0.782185 7.05848 0 0 0 -2.94505 5376.75 4.59534 459889 -3.27259e+07 2.33028e+06 -2753.15 30.394 818.326 0.05 
8455 1 -0.880166 -0.759678 7.02994 0 0 0 3.9533 98.4491 -2.92497 1.38038e+06 3.81142e+07 -1.18664e+06 -1207 -1.84663 -1856.24 0.05 
14035 1 -0.502835 -0.767745 7.05975 0 0 0 2.2945 308.256 -280.749 328874 5.04988e+06 -149315 7864.75 2638.22 -3581.62 0.05 
3099 1 -0.40294 -0.762123 7.03125 0 0 0 0.207444 388.601 -92.4266 -562907 4.84478e+06 -1.45153e+06 -1799.65 -3561.17 2318.67 0.05 
7914 1 -0.276714 -0.742386 7.01916 0 0 0 130.627 571.275 -0.561268 0 931464 -39.8079 -3597.94 -530.151 -2387.15 0.05 
9896 1 -3.0683 -0.703345 7.01043 0 0 0 312.179 -107.294 -0.133966 41.4727 226949 -39.8079 -3530.55 2035.51 -6069.64 0.05 
3621 1 -2.66444 -0.727045 7.01338 0 0 0 278.919 188.491 -0.331416 -1.63224 522191 -39.8079 -4348.51 4276.74 -1180.32 0.05 
8987 1 -2.21992 -0.731136 7.0479 0 0 0 388.135 33.8177 -148.685 -0.530291 607353 -39.8079 2698.07 -1664.29 -2835.43 0.05 
8822 1 -1.96201 -0.705681 7.04468 0 0 0 521.027 395.039 -0.278004 -0.28994 245634 -39.8079 -313.808 4662.34 -5803.63 0.05 
9159 1 -1.67393 -0.733702 7.03895 0 0 0 232.794 -149509 -5.36967 5.24586e+08 3.00307e+09 1.80116e+07 -5123.89 4912.15 8376.22 0.05 
12201 1 -1.59134 -0.692094 7.01804 0 0 0 291.425 274.715 -0.114977 -2.08324e+07 -5.81043e+08 3.61965e+06 -4747.59 -1012.95 -1444.23 0.05 
5056 1 -1.4899 -0.712517 7.04637 0 0 0 205.496 210.971 -101.428 1.22015e+06 3.31785e+07 -924704 4113.36 -3439.65 -11145.3 0.05 
13416 1 -0.0534926 -0.704777 7.01741 0 0 0 51.9696 206.832 1.26584 9.62391e+08 -4.34056e+07 2.51056e+07 -3594.25 -127.392 -6338.26 0.05 
5834 1 -3.54993 -0.660374 7.01345 0 0 0 426.189 0.365533 0.125035 1.16765e+07 58547.6 -39.8079 -0.0222797 -488.626 187.09 0.05 
13018 1 -2.96458 -0.646417 7.03242 0 0 0 313.562 195.283 0.586195 5.54968 39097.7 -39.8079 2715.75 -3248.88 5486.66 0.05 
9436 1 -2.74253 -0.658716 7.01093 0 0 0 342.02 -6.9874 -0.0937211 -1.79808 55758 -39.8079 -14.8129 -65.9384 137.286 0.05 
1637 1 -2.05651 -0.661548 7.02217 0 0 0 330.595 444.965 0.0449682 -0.358564 60615.6 -39.8079 -2667.42 -1765.54 -2225.29 0.05 
3779 1 -1.79767 -0.671082 7.04413 0 0 0 414.933 87.3249 9.03521 -7.7465e+06 -4.19026e+08 -3.42463e+06 -3410.95 -1077.76 3019.45 0.05 
10884 1 -1.81842 -0.674895 7.01973 0 0 0 2.86556 -68018.1 -74.5255 -1.64077e+07 1.47828e+09 -1.78535e+07 -24928 1480.79 -3532.83 0.05 
8682 1 -1.38715 -0.67842 7.04813 0 0 0 373.111 444.214 0.737177 246644 1.52708e+07 220652 -803.072 -1911.64 1369.53 0.05 
275 1 -1.21383 -0.648678 7.04167 0 0 0 415.355 138.705 -2.0762 -2.16384e+07 8.55107e+07 -4.68179e+08 -5582.58 -300.803 2340.63 0.05 