ITEM: TIMESTEP
310000
ITEM: NUMBER OF ATOMS
14052
ITEM: BOX BOUNDS ff pp ff
-3.75 3.75
-1 1
0 10
ITEM: ATOMS id type x y z ix iy iz vx vy vz fx fy fz omegax omegay omegaz radius 
13821 1 -1.59505 -0.510494 4.5448 0 0 0 0.275183 105.578 -171857 -0.138558 1467.45 -39.8079 4511.3 3783.37 -2558.63 0.05 
9412 1 -2.15413 -0.35162 4.5363 0 0 0 1.89464 14.6513 -171840 -0.451325 75.2518 -39.8079 -9278.38 13846.1 5701.27 0.05 
13215 1 -0.227489 -0.102307 4.61711 0 0 0 -0.415757 615.338 -169069 0 0.490265 -39.8079 56.5582 22216.6 -6775.57 0.05 
10206 1 -3.22438 0.651242 4.57867 0 0 0 223.626 -338.417 -170107 706.203 -44873.6 -39.8079 5136.14 -10974 -8981.36 0.05 
12795 1 -2.98496 -0.318956 4.63025 0 0 0 496.068 -76.1834 -168732 8.71453 42.8733 -39.8079 -10403.9 3184.62 3882.04 0.05 
7183 1 -0.750529 -0.360637 4.69168 0 0 0 -0.775491 310.248 -166448 0 87.993 -39.8079 -12783.2 -9045.73 -4366.71 0.05 
4371 1 -1.71273 0.397714 4.67489 0 0 0 0.978136 -152.086 -167037 -0.173176 -168.997 -39.8079 17513.9 -2599.57 17.1685 0.05 
11397 1 -0.430414 0.754489 4.68414 0 0 0 0.381765 53.6011 -166689 0 -1.50744e+06 -39.8079 9019.46 16450.5 -5556.43 0.05 
12202 1 -1.69828 -0.493061 4.75704 0 0 0 179.822 82.5013 -164076 -0.168389 1025.74 -39.8079 9591.61 11592.2 3632.57 0.05 
10576 1 -3.26919 0.235034 4.75924 0 0 0 288.581 -171.664 -164748 1761.15 -9.872 -39.8079 -34639.3 13625.1 1203.32 0.05 
13017 1 -1.48729 -0.793176 4.79114 0 0 0 0.909248 580.086 -163153 -0.114107 8.37691e+06 -39.8079 -24189.3 -7438.98 3021.17 0.05 
8448 1 -0.483476 -0.798729 4.88686 0 0 0 0.508839 347.722 -159922 0 1.09978e+07 -39.8079 -5624.8 -12451.1 599.922 0.05 
11202 1 -0.849791 0.251307 4.91264 0 0 0 123.447 238.648 -159224 0 -13.2325 -39.8079 -9912.06 27218.7 2176.75 0.05 
13635 1 -1.11897 0.675601 4.89852 0 0 0 1.12983 -248.908 -159669 0 -92708.2 -39.8079 23219.4 1106.72 3265.97 0.05 
11049 1 -2.64866 -0.218492 4.95671 0 0 0 133.741 -5.57849 -157302 -1.58202 7.27254 -39.8079 18.8217 -15907.8 3665.63 0.05 
9405 1 -1.49368 0.137188 4.96524 0 0 0 152.075 67.4589 -157450 -0.115398 -1.29718 -39.8079 -6349.9 -4238.04 -3403.14 0.05 
12319 1 -0.0529338 0.161134 4.96985 0 0 0 -0.207636 85.6351 -158386 0 -2.27705 -39.8079 -4133.99 98548.8 -3973.59 0.05 
11924 1 -1.4842 -0.569702 5.01347 0 0 0 0.042537 132709 -156145 -0.113487 5427.29 -39.8079 -713.479 -4098.91 8296.87 0.05 
13254 1 -1.96443 0.529288 5.01311 0 0 0 -0.150737 27.6418 -155765 -0.291484 -2186.57 -39.8079 -7367.64 -23625.4 3565.41 0.05 
12761 1 -0.541565 0.530012 5.00125 0 0 0 0.273628 -327.091 -156298 0 -2221.03 -39.8079 16792.2 -12762.6 -880.602 0.05 
11242 1 -1.16453 0.578465 5.04641 0 0 0 -0.0422323 -200.715 -155175 0 -6679.42 -39.8079 11388 -13157.8 4496.39 0.05 
8681 1 -0.510986 0.821324 5.07859 0 0 0 -0.925695 -764.1 -153783 0 -3.61822e+07 -39.8079 -50699.1 11980.1 1235.89 0.05 
12566 1 -1.89855 0.272611 5.09793 0 0 0 77.5525 -317.074 -153211 -0.252776 -19.2605 -39.8079 -16700 2013.15 5382.68 0.05 
12900 1 -3.48782 0.800855 5.09943 0 0 0 310.628 -525.019 -151839 781218 -1.22297e+07 -39.8079 -23920.6 40304.7 -3110.64 0.05 
12455 1 -2.35563 -0.308069 5.23278 0 0 0 1.67213 168.304 -148866 -0.750422 35.5587 -39.8079 7925.15 12355.5 -4376.61 0.05 
4032 1 -1.64334 0.244653 5.2295 0 0 0 0.993796 310.862 -148998 -0.151618 -11.7478 -39.8079 9126.22 20299.1 3259.07 0.05 
7677 1 -1.36622 0.536618 5.23575 0 0 0 -0.253296 -136.761 -149126 -0.0927062 -2564.46 -39.8079 -7104.88 7447.28 662.835 0.05 
8255 1 -3.29294 -0.428562 5.29116 0 0 0 175.976 68.4654 -146740 2947.36 295.767 -39.8079 -29492.7 -11449 4606.84 0.05 
10609 1 -1.77685 -0.321465 5.26839 0 0 0 1.51252 -165.219 -147349 -0.196573 44.7616 -39.8079 27672.1 -1753.56 3676.46 0.05 
11415 1 -0.876999 0.822793 5.25088 0 0 0 238.893 -918.9 -148344 0 -3.92953e+07 -39.8079 -96357.5 -10605.3 1405.99 0.05 
13781 1 -2.52472 -0.000983206 5.37269 0 0 0 31.3856 1.24119 -144580 -1.17366 3.87791e-07 -39.8079 5489.15 -18032.1 -657.816 0.05 
6492 1 -1.69773 0.757809 5.39698 0 0 0 110.525 -198.309 -142339 -0.16821 -1.72737e+06 -39.8079 16696.9 -12891.1 2389.16 0.05 
12363 1 -3.15051 -0.414375 5.43259 0 0 0 355.596 239.596 -142172 176.926 228.127 -39.8079 8225.56 -3555.31 5490.18 0.05 
7639 1 -0.954667 -0.192662 5.43516 0 0 0 -1.0914 165.7 -141912 0 4.41574 -39.8079 15457.6 21674 1082.4 0.05 
9165 1 -2.43659 -0.769309 5.45441 0 0 0 69.1415 58.9653 -141097 -0.929581 2.81001e+06 -39.8079 -44682.4 13410.2 -3042.24 0.05 
6487 1 -3.35739 -0.324903 5.45267 0 0 0 396.824 223.839 -141599 13663.4 47.4853 -39.8079 12836.7 -22377.9 -7704.65 0.05 
13278 1 -2.04375 0.810625 5.48572 0 0 0 147.39 -1171.56 -140221 -0.348216 -2.02258e+07 -39.8079 -69159.6 7820.31 8625.9 0.05 
11852 1 -2.18486 -0.537944 5.52569 0 0 0 209.781 264.784 -138928 -0.486325 2640.11 -39.8079 11897.3 19456.2 984.161 0.05 
10766 1 -2.77577 0.0227555 5.52294 0 0 0 274.323 -645.343 -139270 -1.77223 -0.00483485 -39.8079 -41199.7 -4787.51 941.861 0.05 
12207 1 -0.638595 0.378298 5.53856 0 0 0 -0.261889 -17318 -139063 0 -119.812 -39.8079 -20262.1 -18969.9 601.985 0.05 
3777 1 -2.73951 -0.554542 5.55816 0 0 0 477.102 -46658.1 -137498 -1.79626 3824.74 -39.8079 2511.96 -4716.12 -2155.11 0.05 
11713 1 -2.15307 -0.251624 5.57103 0 0 0 187.819 -811.193 -137639 -0.450173 13.3074 -39.8079 12852.1 -8865.71 6541.5 0.05 
9454 1 -2.46715 -0.121307 5.57419 0 0 0 23.8613 148.175 -137789 -1.00827 0.856731 -39.8079 8704.99 5585.32 2765.96 0.05 
3037 1 -0.655977 0.0306882 5.64353 0 0 0 51.9572 -3.79083 -135437 0 -0.0119139 -39.8079 -3964.81 -4136.05 3439.81 0.05 
10622 1 -2.53133 -0.51552 5.70077 0 0 0 149.526 3.09273 -132670 -1.19404 1630.42 -39.8079 -19546.9 30099.5 -1973.68 0.05 
9289 1 -0.142849 0.318633 5.65921 0 0 0 1.1644 -131.287 -134108 0 -42.6358 -39.8079 -3624.17 -6460.88 4435.75 0.05 
9291 1 -0.582913 -0.164038 5.73195 0 0 0 0.867404 -55.9492 -132285 0 2.42806 -39.8079 9808.39 -21308.2 -682.456 0.05 
8417 1 -2.52964 -0.706393 5.7957 0 0 0 9.37304 66461.1 -129879 -1.18879 251667 -39.8079 7807.19 -6700.52 1209.71 0.05 
1298 1 -2.31989 -0.554114 5.78833 0 0 0 79.3297 274.919 -130642 -0.683679 3787.79 -39.8079 5833.24 8835.42 -5717.94 0.05 
6601 1 -3.06721 -0.240553 5.78629 0 0 0 222.059 156.804 -130485 40.6869 10.9113 -39.8079 1511.83 7088.19 3380.35 0.05 
11208 1 -0.922923 0.317969 5.88927 0 0 0 -0.489781 -313.998 -127289 0 -42.1526 -39.8079 -18203.6 16205.6 -2992.52 0.05 
10028 1 -3.44647 0.69566 5.87479 0 0 0 386.621 -271.471 -126502 180434 -175681 -39.8079 44558.4 21410.1 2807.04 0.05 
11214 1 -1.90929 0.812193 5.91479 0 0 0 194.512 -944.305 -125393 -0.258637 -2.19792e+07 -39.8079 -70915.1 587.244 -4847.1 0.05 
2112 1 -1.37453 -0.396844 5.96723 0 0 0 111.049 -54.5445 -124158 -0.0940059 166.394 -39.8079 1233.91 1872.77 1305.06 0.05 
206 1 -2.29112 -0.760796 6.00074 0 0 0 83.4541 65.9563 -122356 -0.634799 1.95568e+06 -39.8079 -18401.5 -18084.4 1061.65 0.05 
13478 1 -2.79103 0.407908 6.03863 0 0 0 449.637 -45.6358 -121456 -1.72288 -202.931 -39.8079 -10129.5 -26863.5 2476.92 0.05 
4730 1 -2.3499 0.572089 6.05245 0 0 0 334.723 -235.057 -121644 -0.739236 -5740.71 -39.8079 20948.1 -7961.38 -4366.16 0.05 
8660 1 -2.89879 -0.782029 6.07802 0 0 0 534.999 441.29 -119849 0.294721 4.95541e+06 -39.8079 14477.5 -14760.4 -8301.81 0.05 
12559 1 -2.6358 -0.772343 6.08933 0 0 0 32464 41.0035 -119774 -1.53962 3.20791e+06 -39.8079 -43723.8 -25383.5 -13862.8 0.05 
9911 1 -2.30444 -0.191242 6.07185 0 0 0 90.3066 -152.24 -121287 -0.656914 4.29213 -39.8079 -9458.35 6156.14 792.257 0.05 
4350 1 -1.93983 -0.595709 6.1493 0 0 0 93.4383 630.467 -117650 -0.276237 10174.1 -39.8079 -12400.1 -42919.9 4136.68 0.05 
3659 1 -1.15945 -0.611295 6.16915 0 0 0 5.16334 430.722 -117801 0 15108.9 -39.8079 2733.13 11103 -565.496 0.05 
13047 1 -1.47141 -0.504935 6.13217 0 0 0 2.72496 121.488 -118930 -0.110972 1307.55 -39.8079 -5261.26 -2525.86 1985.84 0.05 
9947 1 -0.484498 -0.206969 6.16077 0 0 0 0.987894 -342.507 -117774 0 5.84343 -39.8079 -10103.5 12433.8 10082.9 0.05 
7680 1 -0.230753 0.660135 6.15039 0 0 0 -0.0890154 3.45284 -117826 0 -58136.5 -39.8079 -7670.81 -7350.76 -6526.56 0.05 
11268 1 -1.93232 -0.197715 6.27503 0 0 0 1.76208 -81.2142 -114222 -0.271775 4.88076 -39.8079 29864.8 -3618.73 -685.673 0.05 
12040 1 -3.19312 0.0945841 6.24871 0 0 0 471.713 -356.738 -114849 387.174 -0.380945 -39.8079 15089.1 17082 -86.3417 0.05 
7591 1 -0.677 0.715012 6.29388 0 0 0 -0.00815119 68.4506 -113236 0 -339110 -39.8079 14341 -7770.88 7549.9 0.05 
12192 1 -0.206447 0.179959 6.33732 0 0 0 2.37786 -93.6073 -112466 0 -3.41036 -39.8079 19408.4 -524.192 3250.39 0.05 
13500 1 -0.507373 0.915097 6.36146 0 0 0 1.06112 -117704 -111014 0 -6.16545e+10 -39.8079 38161.3 9002.19 3337.92 0.05 
9169 1 -1.88558 -0.51358 6.4319 0 0 0 34.9853 72468.5 -109754 -0.245918 1565.28 -39.8079 18361.9 -32131.1 19347.1 0.05 
8359 1 -2.18603 0.0576759 6.41133 0 0 0 77.7597 -401.521 -109586 -0.487727 -0.0811882 -39.8079 -5819.2 -7486.86 -11905.4 0.05 
10939 1 -2.74005 0.641098 6.40989 0 0 0 188.799 39.8919 -108479 -1.79663 -33659.4 -39.8079 3906.56 21481.6 603.853 0.05 
13249 1 -1.23673 -0.754106 6.44239 0 0 0 199.43 542.269 -107671 0 1.48407e+06 -39.8079 -27288.1 23601.4 -625.568 0.05 
8437 1 -3.41968 0.293504 6.44584 0 0 0 585.023 38137.3 -108235 77341.7 -27.672 -39.8079 19327.7 -34445.8 -4832.02 0.05 
13159 1 -3.5602 0.489079 6.4487 0 0 0 879.068 -477.739 -107355 1.97778e+07 -946.586 -39.8079 -17199.1 -37408.3 -2407.07 0.05 
12032 1 -2.87867 -0.333955 6.53074 0 0 0 290.307 -84.2955 -104733 -0.447394 55.4827 -39.8079 4790.94 -28224.8 3147.42 0.05 
13964 1 -0.207471 -0.239176 6.54465 0 0 0 -1.73267 -435.101 -104936 0 10.643 -39.8079 -4294.31 -12211.4 -775.338 0.05 
6590 1 -3.56194 -0.132173 6.5424 0 0 0 703.038 131.805 -105312 2.16852e+07 1.1427 -39.8079 6267.37 -36918.6 8012.27 0.05 
9303 1 -0.349093 -0.120473 6.54246 0 0 0 0.589332 122.437 -105137 0 0.837296 -39.8079 -13928.1 -5148.38 933.195 0.05 
1859 1 -2.70022 0.265512 6.54753 0 0 0 110.629 -566.061 -104579 -1.73193 -17.0101 -39.8079 -5784.6 4348.33 5790.38 0.05 
6890 1 -2.16806 0.31177 6.5858 0 0 0 130.388 247.473 -103525 -0.466804 -37.8944 -39.8079 2141.05 14005.6 -3014.62 0.05 
12315 1 -3.42025 0.441641 6.54026 0 0 0 198.43 122.554 -105651 78686 -377.224 -39.8079 29274.3 -39488.5 7802.64 0.05 
4674 1 -1.60072 0.565366 6.57412 0 0 0 169.282 83.8409 -103803 -0.140017 -4904.6 -39.8079 24967.3 -9431.76 9902.63 0.05 
271 1 -3.47467 -0.160978 6.60703 0 0 0 266.091 194.947 -103281 478862 2.26919 -39.8079 -6456.94 40297.8 -4579.49 0.05 
13236 1 -3.13963 0.0785301 6.60211 0 0 0 271.393 -26401 -102743 145.596 -0.211444 -39.8079 1781.1 -1637.86 4576.29 0.05 
11483 1 -1.88841 -0.752163 6.65162 0 0 0 4.93022 4886.1 -101314 -0.247397 1.37173e+06 -39.8079 65648.3 -5559.14 -2364.46 0.05 
7042 1 -1.69139 0.510407 6.68302 0 0 0 223.827 -12654.7 -100089 -0.166163 -1464.81 -39.8079 -34206.3 -5516.62 3736.18 0.05 
13162 1 -0.414263 0.0415431 6.71227 0 0 0 109.41 261.21 -98328.8 0 -0.0298109 -39.8079 336.558 -9142.93 2716.89 0.05 
10345 1 -3.09221 -0.739323 6.77619 0 0 0 128.2 5018.8 -96029.9 63.1008 827572 -39.8079 52479.7 4063.3 -1435.06 0.05 
3372 1 -1.59227 -0.0179155 6.74649 0 0 0 4.82462 104.867 -98057.9 -0.137852 0.00235436 -39.8079 -23909.3 -10681.9 -2635.59 0.05 
8516 1 -0.701548 0.266363 6.7612 0 0 0 1.42313 -60.5683 -97581.6 0 -17.2658 -39.8079 2073.26 9071.94 8287.91 0.05 
3963 1 -0.262189 0.566677 6.75544 0 0 0 2.44269 221.96 -97608.4 0 -5056.64 -39.8079 -5048.29 -19173.1 -6525.2 0.05 
10960 1 -1.21993 0.79961 6.75995 0 0 0 595.398 -3053.8 -97761.7 0 -1.14906e+07 -39.8079 -90095.7 -10669.7 9763.8 0.05 
13505 1 -0.164347 -0.576462 6.81798 0 0 0 153.17 69735 -96226 0 6367.62 -39.8079 23766.4 5473.26 -5383.39 0.05 
13612 1 -1.51864 -0.17692 6.81536 0 0 0 62.0346 -322.345 -95748.3 -0.120625 3.20101 -39.8079 -15597.4 371.408 3250.97 0.05 
4198 1 -1.48586 -0.045544 6.80518 0 0 0 89.7897 67.2626 -96374.1 -0.11382 0.0394304 -39.8079 -21743.3 -3519.48 1061.91 0.05 
11890 1 -2.84445 0.139677 6.80344 0 0 0 451.004 -143.809 -96205.9 -1.2251 -1.37965 -39.8079 22358.7 -25560.3 3189.61 0.05 
10867 1 -3.07183 0.795365 6.80772 0 0 0 400.747 -475.908 -95278.5 44.136 -9.31748e+06 -39.8079 -14545.6 26999.2 991.261 0.05 
13274 1 -1.34366 -0.797229 6.8496 0 0 0 153.741 191.369 -94381.9 -0.0892884 1.02107e+07 -39.8079 2351.61 -12550.2 -462.172 0.05 
12344 1 -0.104789 -0.227822 6.88589 0 0 0 -0.974427 -381.27 -92491.4 0 8.65006 -39.8079 -1449.49 -3011.39 12858.7 0.05 
12661 1 -3.54025 0.282302 6.88612 0 0 0 607.14 -45.1973 -93168.8 7.28011e+06 -22.7978 -39.8079 15991.1 -5875.18 -3027.09 0.05 
9422 1 -1.45461 0.434404 6.86767 0 0 0 145.633 -279.522 -93780.3 -0.107771 -329.554 -39.8079 5125.03 2882.75 6268.6 0.05 
4108 1 -0.716777 -0.615603 6.92452 0 0 0 8.49039 343.105 -91544.4 0 16899.6 -39.8079 23231 11283.8 -603.078 0.05 
11228 1 -0.854258 0.675354 6.93066 0 0 0 212.296 -292.207 -91140.6 -6.1894e+06 1.72901e+07 3.20735e+08 26654.4 22504.4 881.645 0.05 
10082 1 -0.0747241 -0.870422 7.00168 0 0 0 1.70178 -56134.4 -27.2856 -1.21588e+07 1.08873e+09 1.0867e+07 -61979.4 -1193.2 -35447.7 0.05 
14013 1 -3.30285 -0.825808 7.00185 0 0 0 1.47907 1540.03 0.382798 1.47938e+06 4.0536e+07 493169 -916.897 4.78774 3678.86 0.05 
10394 1 -1.98152 -0.808595 6.98146 0 0 0 455.462 877.947 -89847.8 9.26232e+06 2.1107e+07 3.38246e+08 48233.5 4374.56 467.789 0.05 
12327 1 -1.10087 -0.817798 7.00053 0 0 0 0.281097 687.842 0.946941 621151 2.74663e+07 399116 -5649.16 37.0113 3916.36 0.05 
6695 1 -0.781352 -0.822566 7.00086 0 0 0 -0.158495 988.817 -1.94114 0 3.8796e+07 -39.8079 -1105.73 -1.7622 291.429 0.05 
13221 1 -0.460272 -0.8249 6.99855 0 0 0 1.05957 977.103 -270.217 258979 3.74373e+07 1.5355e+06 -9417.14 -3243.65 -582.543 0.05 
13855 1 -1.76219 -0.75588 7.00274 0 0 0 38.9549 272.047 -75.6868 -6.39509e+06 2.85876e+08 -2.69903e+08 -3050.15 3630.62 -5474.3 0.05 
12243 1 -0.703938 -0.750133 7.00116 0 0 0 72.871 301.36 0.138442 0 1.26426e+06 -39.8079 -5547.34 337.431 -7846.79 0.05 
11028 1 -0.585257 -0.765494 7.00049 0 0 0 -0.99337 240.371 -16.7603 1766.23 -1.11137e+07 -3.94763e+08 -4554.27 141.75 5024.14 0.05 
5466 1 -0.115575 -0.782016 7.00614 0 0 0 -0.817994 198.909 -133.316 1.21588e+07 -1.84579e+08 -1.08671e+07 -10983.1 -3204.47 -9417.13 0.05 
13426 1 -3.28476 -0.733918 7.0083 0 0 0 231.171 174.41 0.64715 -1.47324e+06 6.78871e+06 -493249 -1203.33 3586.35 20.435 0.05 
9896 1 -3.06581 -0.702937 7.00986 0 0 0 310.488 215.424 -235.093 39.6932 223848 -39.8079 -559.755 -954.382 -3468.77 0.05 
11386 1 -2.48089 -0.716745 7.00615 0 0 0 283.658 260.349 -189.377 -1.04573 360454 -39.8079 1642.02 7663.69 -797.809 0.05 
10294 1 -1.68159 -0.714316 6.96574 0 0 0 9.16226 -86.9348 -90221.4 -8.76129e+06 1.64833e+07 7.15258e+08 14552.8 -5360.34 -2008.38 0.05 
11448 1 -3.35169 -0.65918 7.00544 0 0 0 340.811 -0.714958 -95.3333 -2.1633e+06 2.22251e+07 -4.96152e+08 -3132.63 -892.463 372.074 0.05 
9043 1 -2.27683 -0.662273 7.00114 0 0 0 336.617 0.604854 -4.94755 -0.612027 61932.4 -39.8079 234.082 1460.24 -132.83 0.05 
9387 1 -1.8849 -0.634531 7.00045 0 0 0 362.228 218.574 -204.974 -1.48797e+07 4.02007e+08 -7.09077e+06 -8621 -3073.53 -1199.19 0.05 
13214 1 -1.70189 -0.640813 7.00811 0 0 0 338.316 266.033 -135.131 1.65294e+06 -1.90669e+07 -4.38134e+08 958.103 1946.87 6035 0.05 
13698 1 -0.545011 -0.634768 7.00075 0 0 0 362.28 247.29 -60.0059 5.43976e+06 8.69599e+07 -5.46251e+08 -2887.22 1851.71 2598.29 0.05 
3890 1 -3.45481 -0.604567 7.0043 0 0 0 441.445 0.232246 -106.189 8.40297e+06 6.97698e+06 -5.19723e+08 -626.835 7485.31 814.907 0.05 
6232 1 -3.38677 -0.592367 6.99432 0 0 0 601.646 596.495 -89202.5 -1.58799e+07 -6.0726e+06 1.48349e+09 -26211.2 33370.8 -8313.05 0.05 
14036 1 -2.3723 -0.627466 7.00042 0 0 0 394.27 174.674 -77.2312 -0.784013 23153.5 -39.8079 -5492.48 5111.42 -5038.93 0.05 
7434 1 -1.82348 -0.582303 7.0084 0 0 0 26.379 10220.7 -4.49548 2.02227e+06 -1.17669e+08 91297.3 6893.28 562.956 295.059 0.05 
13329 1 -1.32881 -0.595091 7.00407 0 0 0 430.604 256.338 -0.0046529 -0.0871255 10018.7 -39.8079 -1941.81 4204.42 -4716.37 0.05 
5912 1 -0.35609 -0.599081 7.0015 0 0 0 424.295 397.264 -0.417159 -186160 4.61851e+07 2.87176e+06 -6994.87 4440.52 3152.99 0.05 
11316 1 -2.81153 -0.557859 7.00166 0 0 0 287.965 206.717 -3.94282 -3.79544e+06 4.75083e+07 133246 -3880.57 4590.02 -5718.65 0.05 
11479 1 -2.4583 -0.535056 7.00283 0 0 0 299.484 220.081 -309.659 879137 47707.6 -86118.7 -3219.74 -6389.48 6508.17 0.05 
12594 1 -0.814117 -0.549467 7.00679 0 0 0 302.264 284.563 -2.01277 297261 -244827 -404633 -116.607 4242.83 4663.77 0.05 
10556 1 -0.708895 -0.54035 7.00963 0 0 0 308.131 342.668 -156.114 -691374 -571462 1.35845e+06 777.136 3149.91 -3364.89 0.05 
9307 1 -0.259694 -0.533526 7.00188 0 0 0 291.105 479.221 1.16766 0 2397.03 -39.8079 -3830.5 4721.73 1936.9 0.05 
12205 1 -3.12022 -0.503585 7.00367 0 0 0 228.237 80.6642 -77.76 -555026 -140776 -922384 -4934.7 2279.31 4661.62 0.05 
7966 1 -2.0219 -0.51929 7.00054 0 0 0 271.21 261.385 -1.14495 -0.331343 1765.53 -39.8079 -5905.43 4623.78 3846.23 0.05 
10984 1 -1.50285 -0.50572 7.00094 0 0 0 248.338 85.8518 -392.767 -5.05158e+06 -5.42006e+08 1.01278e+06 -1849.63 4317.68 2730.66 0.05 
13525 1 -1.37186 -0.490455 7.00913 0 0 0 218.047 324.963 -54.4663 -1.14767e+06 -518367 -290084 -3496.06 1944.37 4133.3 0.05 
5517 1 -3.44172 -0.433799 6.99997 0 0 0 6978.59 -3.18873 -1.33923 -5.20459e+07 1.34521e+06 1.05196e+06 28.7711 -5038.15 5224.07 0.05 
6295 1 -3.22283 -0.472567 7.00705 0 0 0 127.056 279.207 -203.145 1.67705e+06 1.03945e+08 2.60908e+06 -7123.31 408.51 5807.98 0.05 
13644 1 -2.15778 -0.467692 7.00034 0 0 0 110.888 0.565589 -157.235 -0.455313 620.235 -39.8079 5712.16 -318.792 4093.59 0.05 
7418 1 -1.68383 -0.450051 6.99813 0 0 0 0.890269 278.433 -264.707 -0.163764 442.044 -39.8079 181.889 -2164.34 1394.11 0.05 
3483 1 -0.63926 -0.471256 7.0094 0 0 0 131.848 131.536 -1.99612 691374 574911 -1.35853e+06 -4474.28 1676.18 2242.83 0.05 
6072 1 -3.06717 -0.415909 7.00555 0 0 0 -0.23179 128.998 -102.266 1.20571e+07 5.10706e+08 1.77023e+07 -5214.32 -4315.8 742.544 0.05 
11339 1 -2.0738 -0.371962 7.00503 0 0 0 3.18405 192.544 -121.204 -9.40912e+06 3.92104e+06 -3.31701e+08 -5177.65 -4510.52 4952.13 0.05 
7105 1 -1.48556 -0.374736 6.95888 0 0 0 153.519 -257.939 -90853.3 1.53254e+07 -6.07146e+06 4.70577e+08 16299.1 368.698 9768.15 0.05 
12492 1 -1.42302 -0.403191 7.00771 0 0 0 1.14637 283.646 -419.771 -1.53254e+07 6.07176e+06 -4.70577e+08 -5068.77 891.322 4897.78 0.05 
2539 1 -1.1615 -0.407865 7.0089 0 0 0 0 0.00154908 -0.00030411 0 202.774 -39.8079 0 0 0 0.05 
12444 1 -0.778884 -0.385151 7.0071 0 0 0 5.19242 134665 -161.991 -8.99594e+06 -1.53116e+09 6.40572e+07 16365.7 -2205.24 -16090.3 0.05 
6261 1 -0.775938 -0.372297 6.99734 0 0 0 1.50116 144.335 -311.257 1.43881e+07 1.08916e+09 -4.32507e+07 -1801.89 3751.46 -140.524 0.05 
11157 1 -0.354935 -0.411281 7.00165 0 0 0 -0.363799 253.589 -0.0298359 0 215.683 -39.8079 -2619.93 -3.18921 5536.32 0.05 
12860 1 -0.240018 -0.408104 7.00328 0 0 0 -0.471273 379.221 0.37743 5.64788e+06 1.16754e+08 725636 -2727.64 -6.55032 -2385.85 0.05 
3298 1 -2.40087 -0.350807 7.00592 0 0 0 65.2207 251.122 -207.485 -0.845461 74.2006 -39.8079 -7407.33 4969.75 -8391.18 0.05 
13080 1 -1.62959 -0.326119 7.00379 0 0 0 197.143 174.826 -0.755889 -0.147751 48.488 -39.8079 -1215.14 1294.46 -11191.4 0.05 
1680 1 -1.26733 -0.345578 7.00856 0 0 0 14.0948 76906.8 -236.962 3.28588e+08 -1.43258e+09 3.02716e+07 -39764.8 3499.44 -7433.26 0.05 
11927 1 -1.26367 -0.327856 7.00107 0 0 0 51.8577 -204.983 -3.65439 4.36502e+08 6.16477e+08 -2.06132e+07 1116.66 389.669 -1261.31 0.05 
11626 1 -3.32956 -0.292568 7.00954 0 0 0 303.05 -0.212904 -265.272 6856.54 27.2285 -39.8079 4436.21 -2902.13 -4277.21 0.05 
246 1 -1.97593 -0.306617 7.00776 0 0 0 260.68 227.106 -0.510853 -0.298974 34.682 -39.8079 -4401.5 1334.13 -10537.5 0.05 
13413 1 -0.751361 -0.272258 7.00826 0 0 0 1.83158 6.15984 -73.2307 327413 2.40707e+06 -63604.4 3026.01 74.3252 14.8817 0.05 
13443 1 -2.62366 -0.23477 7.00461 0 0 0 313.393 306.637 -303.102 -1.49884 9.8245 -39.8079 -9285.9 -1777.63 1566.2 0.05 
4622 1 -1.82062 -0.212528 7.01013 0 0 0 247.524 -333.481 -1.49576 -0.214816 6.49836 -39.8079 1618.76 921.204 5554.22 0.05 
11055 1 -1.58608 -0.223536 7.00923 0 0 0 284.437 77.1732 -126 -0.136288 7.99046 -39.8079 -3994.61 5233.94 1669.15 0.05 
9031 1 -1.07493 -0.255675 7.00495 0 0 0 -0.349827 0.558182 -0.133483 0 14.3005 -39.8079 -36.4954 -0.289483 8.36268 0.05 
8291 1 -0.433878 -0.221147 7.01017 0 0 0 0.427325 -44.5696 -242.264 0 7.64284 -39.8079 -1642.04 -5952.09 2099.96 0.05 
10863 1 -3.5126 -0.176221 7.00458 0 0 0 4478.4 -5.22394 -473.765 -2.89685e+07 -2.07785e+06 -1.15531e+06 -6575.51 820.331 5607.48 0.05 
11894 1 -3.17324 -0.176259 7.00155 0 0 0 96.3814 5.16526 -3.0368 140249 1.55953e+06 -971458 -113.832 663.645 3939.27 0.05 
7242 1 -1.01376 -0.157908 7.00612 0 0 0 0.575333 0.379949 -184.543 0 2.11838 -39.8079 3269.03 5355.09 3.02773 0.05 
12122 1 -0.561736 -0.186272 6.998 0 0 0 -0.486486 -280.04 -438.813 0 3.88243 -39.8079 1571.51 2273.6 -4490.38 0.05 
13658 1 -0.159218 -0.166869 6.9988 0 0 0 -0.178976 -114.774 -340.733 53732.1 35409.5 -51200.6 5127.67 -2453.78 -4774.68 0.05 
12127 1 -2.82774 -0.110316 7.0062 0 0 0 0.14902 -17.5509 -51.8905 -1.45121 0.626351 -39.8079 -1219.28 2152.68 -731.6 0.05 
6839 1 -2.93596 -0.0589472 7.0006 0 0 0 91.1857 -7.34026 -0.645189 2.55922 0.0868175 -39.8079 -34.7173 3569.02 -2026.01 0.05 
11247 1 -2.37222 -0.0780413 7.00016 0 0 0 284.956 -285.701 -89298.2 -9.36252e+06 1.3495e+07 1.42836e+09 18921.5 15652.2 2783.44 0.05 
9952 1 -1.27491 -0.0737161 7.0053 0 0 0 83.8854 -335.815 -0.280684 -0.0798003 0.173487 -39.8079 779.265 3131.86 -3371.85 0.05 
3780 1 -0.87521 -0.0762625 6.97826 0 0 0 214.907 -236.709 -90101.7 -6.62235e+06 -1.32914e+06 8.80873e+08 10719.3 16253.5 -3372.59 0.05 
13065 1 -0.446707 -0.0708731 7.00084 0 0 0 57.8622 -165.536 -2.12199 -5.08247e+06 -1.90112e+08 -6.99727e+06 2015.4 2336.1 2318.99 0.05 
11753 1 -2.68326 -0.00798569 7.00427 0 0 0 155.789 330.457 -132.677 586232 -738320 472543 -125.966 1673.85 873.142 0.05 
13038 1 -2.38324 -0.0448331 7.01017 0 0 0 160.859 182.927 -165.944 1.05328e+07 -1.60485e+08 -6.40704e+08 1041.17 6356.49 -7214.82 0.05 
9721 1 -2.21261 -0.0449442 7.00071 0 0 0 122.864 -3.60597 0.173426 -0.520745 0.0378703 -39.8079 90.524 4807.09 -1539.58 0.05 
11177 1 -1.65827 -0.0167628 7.00134 0 0 0 143.613 151.828 -202.886 -1.28049e+07 1.01749e+09 3.12654e+07 -2050.75 11903.7 -991.11 0.05 
10773 1 -0.273187 -0.0412611 7.00079 0 0 0 66.1537 218.096 -138.824 5.30579e+08 -98573.4 2.0316e+06 4218.82 5632.45 -6423.86 0.05 
9438 1 -3.50503 0.0218884 7.00379 0 0 0 4746.62 -32.6152 -0.485022 -7.73707e+07 -1.08777e+08 -936368 1068.69 528.566 -1431.87 0.05 
1157 1 -1.05284 0.0220059 7.00782 0 0 0 115.779 0.284654 -0.332896 0 -0.00437103 -39.8079 -34.9352 4161.11 2477.71 0.05 
2032 1 -0.422478 0.0495342 7.00015 0 0 0 0.623206 -272.537 -334.294 2.9553e+06 -1.72207e+08 5.72377e+06 5277.66 1253.27 -181.075 0.05 
5587 1 -2.27454 0.0582507 7.00834 0 0 0 49.1615 0.161683 -94.3528 -0.60847 -0.0837012 -39.8079 -74.9332 5912.01 -1512.14 0.05 
4228 1 -2.03801 0.0884658 7.00416 0 0 0 119.405 -0.0118464 -1.45933 -0.343682 -0.307866 -39.8079 119.517 4530.99 269.163 0.05 
5683 1 -1.90248 0.0570777 7.00453 0 0 0 26.7238 -107.803 -0.422935 1.2454e+06 -123809 9700.1 845.495 966.622 -5189.08 0.05 
9104 1 -0.713963 0.063754 7.00986 0 0 0 91.2535 3.83822 -195.271 -1241.98 -1044.83 382.192 3100.28 8663.72 -2688.34 0.05 
11421 1 -3.50746 0.154543 7.0034 0 0 0 4635.08 -121.963 -0.38709 -4.07023e+07 738207 -355277 3992.94 -60.7899 3800.49 0.05 
1592 1 -1.4386 0.119271 7.00697 0 0 0 175.331 214.57 -226.15 -940422 -9.23185e+07 615172 -2933.1 81.4706 5006.05 0.05 
8636 1 -0.448996 0.157286 7.00616 0 0 0 120.445 -413.901 -0.683904 0 -2.08885 -39.8079 4452.07 4363.29 3557.15 0.05 
3720 1 -0.32189 0.115361 7.00093 0 0 0 143.364 313.586 -1.43709 0 -0.725381 -39.8079 -3241.05 5521.36 1523.92 0.05 
11518 1 -3.24938 0.185231 7.00191 0 0 0 3.89274 -225.388 -229.923 1165.79 -3.80099 -39.8079 -2998.39 -2600.31 5901.16 0.05 
8568 1 -3.0218 0.188161 7.00797 0 0 0 1.94801 -311.359 -0.183384 17.9514 -4.03407 -39.8079 3638.85 36.8077 3548.09 0.05 
11832 1 -2.59855 0.185914 7.00211 0 0 0 4.51169 97.2946 -2.84174 3.21878e+06 1.18015e+08 5.96651e+06 -3040.68 75.7187 2583.78 0.05 
11037 1 -1.58257 0.169703 7.0016 0 0 0 73.8672 -0.0244471 -118.621 -0.135414 -2.7463 -39.8079 -1007.31 3774.08 1809.56 0.05 
5472 1 -1.06038 0.185042 7.00206 0 0 0 -0.480115 0.438004 -0.479881 0 -3.78639 -39.8079 -36.5086 0.40685 1.12942 0.05 
13760 1 -3.57655 0.253476 7.00059 0 0 0 1523.36 -181.647 -263.578 3.93102e+07 -1.22583e+06 -906179 2239.98 6263.54 61.968 0.05 
10467 1 -3.39085 0.224602 7.00623 0 0 0 6.3495 -84.873 0.23309 2.3979e+07 405440 -1.51023e+06 890.262 192.436 -3692.17 0.05 
3741 1 -1.25446 0.223245 7.0102 0 0 0 0.444528 -331.801 -0.221765 -0.0772225 -7.94736 -39.8079 -7.20369 -1.50365 1997.48 0.05 
13514 1 -0.206695 0.248699 7.00995 0 0 0 -0.245206 -108.999 -235.454 0 -12.6308 -39.8079 8851.67 1537.2 1762.64 0.05 
6836 1 -0.737038 0.2751 7.00286 0 0 0 -0.048025 4.92997 -288.485 -565029 411583 -449948 1032.28 4860.85 -16.3749 0.05 
5181 1 -3.31061 0.344395 7.00141 0 0 0 340.18 -308.945 -1.13243 4393.47 -66.4187 -39.8079 3858.65 5791.69 -7304.2 0.05 
5457 1 -2.82937 0.32291 7.0046 0 0 0 219.112 0.624078 -65.9053 -1.43257 -45.887 -39.8079 -2818.02 6535.62 -4939.71 0.05 
4861 1 -2.72256 0.352933 7.00928 0 0 0 391.004 -159.322 -189.858 -196637 6.50498e+08 6.66205e+06 4492.46 3027.82 -10345.2 0.05 
9264 1 -2.58708 0.318225 7.01011 0 0 0 195.581 -62.1575 -2.98431 2.39556e+06 2.1285e+08 -1.20596e+07 1289.49 5278.27 -602.366 0.05 
7879 1 -2.47173 0.352872 7.01009 0 0 0 383.677 63.2494 -1.19803 -1.02061 -76.9013 -39.8079 2402.55 5587.35 -4912.58 0.05 
13743 1 -2.13756 0.355852 7.00013 0 0 0 354.843 -305.044 -240.579 -0.433703 -80.9777 -39.8079 8948.85 2256.48 -7214.97 0.05 
12717 1 -1.96409 0.365947 7.00124 0 0 0 246.03 -113.842 -0.689711 -325303 18194.6 -268701 2656.97 313.451 -2055.55 0.05 
5648 1 -1.35464 0.329323 7.00356 0 0 0 -0.0845269 -36.5764 -0.803701 -90358.3 132627 -17426.5 3937.5 -13.9498 -8074.34 0.05 
13166 1 -1.42263 0.420156 7.00281 0 0 0 69362 227.553 -195.132 -1.04535e+09 -8.48357e+06 -2.62701e+06 -1502.38 -69787 -33945.8 0.05 
11062 1 -0.771382 0.402338 7.00205 0 0 0 0.699002 3.07598 -0.887235 0 -183.582 -39.8079 -144.685 -1.31459 215.002 0.05 
12140 1 -0.470411 0.378161 7.00268 0 0 0 0.000543864 -290.737 -142.392 0 -119.523 -39.8079 10358.1 -2577.21 -2300.36 0.05 
12270 1 -0.206458 0.38024 7.01008 0 0 0 -0.264785 -105.306 -97.1213 0 -123.975 -39.8079 7066.34 3047.51 1720.32 0.05 
4450 1 -3.09474 0.433265 7.00507 0 0 0 327.465 -339.324 -1.21417 3.55852e+06 -9.70228e+07 -256772 3158.16 -30.0488 736.396 0.05 
13401 1 -1.49044 0.44378 7.00518 0 0 0 276.17 -387.845 -420.916 4.36772e+08 -257518 -1.17356e+07 12563.8 5133.34 960.278 0.05 
13997 1 -1.31737 0.43479 7.0015 0 0 0 0.291073 -246.317 -0.197889 -0.0855023 -331.925 -39.8079 4166.26 15.5116 -8390.29 0.05 
12657 1 -1.2116 0.456283 7.00114 0 0 0 0.149443 -231.994 -0.112417 0 -497.751 -39.8079 996.856 -2.47231 6286.94 0.05 
13330 1 -0.0551502 0.425733 7.00397 0 0 0 1.74044 -321.411 -1.07358 941869 714810 -916266 -287.927 14.8875 3005.86 0.05 
12618 1 -3.57434 0.482848 6.99893 0 0 0 1287.95 -181.973 -328.826 3.6994e+07 1.44513e+06 -885010 4910.52 3115.34 2073.98 0.05 
2817 1 -2.6342 0.481102 7.00438 0 0 0 185.563 -233.514 -1.24107 -1.53425 -807.156 -39.8079 5470.18 -160.668 9756.99 0.05 
10857 1 -2.38374 0.480488 7.00854 0 0 0 210.489 17.4291 -9.64556 1.72514e+07 -4.26747e+08 -8.06402e+06 1372.14 -380.735 5998.06 0.05 
1235 1 -2.117 0.523089 7.0069 0 0 0 290.122 -455.898 -4.37585 -0.412965 -1914.08 -39.8079 4511.19 763.935 -5946.09 0.05 
12193 1 -1.8465 0.496456 7.01022 0 0 0 56371.3 -12947 -206.23 -6.24629e+08 1.34519e+08 1.16452e+07 -6558.15 -61173 -754.699 0.05 
13078 1 -1.40172 0.509628 7.00079 0 0 0 19.5953 33.356 -336.49 3.03451e+08 5.59046e+06 3.82049e+06 3360.92 2599.07 3526.61 0.05 
12409 1 -0.163606 0.480867 7.00725 0 0 0 -0.00564427 -90.4525 -0.0886206 -342146 -3.13867e+07 -2.24861e+06 -208.785 1.09883 -3958.33 0.05 
10883 1 -3.17123 0.530957 7.00855 0 0 0 9.81678 -314.935 -5.32259 257.775 -2266.94 -39.8079 2067.61 116.188 -3022.94 0.05 
3048 1 -3.04696 0.5681 7.00355 0 0 0 2.25765 -312.3 -0.304462 28.4017 -5227.41 -39.8079 3755.63 52.6541 108.242 0.05 
3352 1 -1.51552 0.551199 7.00671 0 0 0 -1.53125 -238.292 -102.196 -0.119955 -3545.99 -39.8079 3792.27 -4411.26 -4471.29 0.05 
13715 1 -1.90675 0.599082 7.00371 0 0 0 96.9412 -108.422 -73.0347 68816.3 -108533 -211915 3347.86 -1876.94 846.488 0.05 
13544 1 -1.42281 0.608409 7.00655 0 0 0 22.6787 -40.7286 -76.9316 -3.41855e+06 -1.52717e+08 -8.44135e+06 7586.58 2740.17 5394.63 0.05 
13720 1 -3.03286 0.674516 7.00918 0 0 0 319.89 -342.306 -0.632638 22.0124 -89659.9 -39.8079 2873.36 6100.38 -4091 0.05 
10007 1 -2.65108 0.636487 7.00362 0 0 0 419.021 -316.016 -101.149 -1.58989 -29612.4 -39.8079 5976.28 951.447 -8262.05 0.05 
11300 1 -2.10165 0.638803 7.00816 0 0 0 292.352 -467.74 -2.04534 -0.398271 -31573.9 -39.8079 5402.48 4562.85 -177.64 0.05 
8166 1 -1.99821 0.636975 7.00049 0 0 0 135.158 -217.582 0.0443602 -178086 154024 457262 5020.86 3976.31 339.392 0.05 
13670 1 -1.25977 0.663997 7.00022 0 0 0 199.992 -333.274 -0.527231 -0.0778809 -65190.1 -39.8079 1498.12 5871.66 -1414.68 0.05 
5082 1 -0.782963 0.647976 7.0054 0 0 0 1.04005 1.74454 -156.752 0 -40868.7 -39.8079 -2307.39 -5506.43 340.19 0.05 
12413 1 -0.277145 0.636145 7.00098 0 0 0 6.64042 -119.105 -424.614 1.32703e+07 2.74102e+08 -4.88084e+06 5645.93 6896.34 -942.532 0.05 
1098 1 -0.0776938 0.646652 7.00135 0 0 0 -0.280266 -342.471 -0.0683267 0 -39358.9 -39.8079 97.9772 0.0352206 -447.284 0.05 
11065 1 -0.676983 0.687246 6.99979 0 0 0 0.240407 -3.04691 -309.105 19901.3 -1.2831e+06 -138124 -3945.93 10.1107 -4.11144 0.05 