ITEM: TIMESTEP
210000
ITEM: NUMBER OF ATOMS
14052
ITEM: BOX BOUNDS ff pp ff
-3.75 3.75
-1 1
0 10
ITEM: ATOMS id type x y z ix iy iz vx vy vz fx fy fz omegax omegay omegaz radius 
13821 1 -1.59505 -0.511549 6.26337 0 0 0 0.275184 105.574 -171857 -0.138558 1500.15 -39.8079 4511.3 3783.37 -2558.63 0.05 
9412 1 -2.15415 -0.351766 6.2547 0 0 0 1.89465 14.6511 -171840 -0.451345 75.4429 -39.8079 -9278.38 13846.1 5701.27 0.05 
12795 1 -2.98992 -0.318194 6.31757 0 0 0 496.068 -76.1835 -168732 9.65806 42.3159 -39.8079 -10403.9 3184.62 3882.04 0.05 
13215 1 -0.227485 -0.10846 6.3078 0 0 0 -0.415757 615.338 -169069 0 0.592608 -39.8079 56.5582 22216.6 -6775.57 0.05 
10206 1 -3.22661 0.654626 6.27973 0 0 0 223.624 -338.3 -170107 738 -49481.4 -39.8079 5136.14 -10974 -8981.36 0.05 
7183 1 -0.750521 -0.36374 6.35616 0 0 0 -0.775491 310.248 -166448 0 92.8736 -39.8079 -12783.2 -9045.73 -4366.71 0.05 
4371 1 -1.71274 0.399235 6.34526 0 0 0 0.978137 -152.086 -167037 -0.173179 -173.654 -39.8079 17513.9 -2599.57 17.1685 0.05 
11397 1 -0.430418 0.753935 6.35103 0 0 0 0.381765 57.2748 -166689 0 -1.47381e+06 -39.8079 9019.46 16450.5 -5556.43 0.05 
13017 1 -1.4873 -0.798863 6.42267 0 0 0 0.909249 556.27 -163153 -0.114109 1.10712e+07 -39.8079 -24189.3 -7438.98 3021.17 0.05 
12202 1 -1.70008 -0.493886 6.3978 0 0 0 179.822 82.4988 -164076 -0.168976 1043.02 -39.8079 9591.61 11592.2 3632.57 0.05 
10576 1 -3.27207 0.236751 6.40672 0 0 0 288.577 -171.664 -164748 1872.55 -10.1851 -39.8079 -34639.3 13625.1 1203.32 0.05 
8448 1 -0.483481 -0.802063 6.48607 0 0 0 0.508839 318.195 -159922 0 1.29971e+07 -39.8079 -5624.8 -12451.1 599.922 0.05 
11049 1 -2.64999 -0.218436 6.52973 0 0 0 133.741 -5.57851 -157302 -1.58637 7.26493 -39.8079 18.8217 -15907.8 3665.63 0.05 
11202 1 -0.851025 0.248921 6.50488 0 0 0 123.447 238.648 -159224 0 -12.681 -39.8079 -9912.06 27218.7 2176.75 0.05 
13635 1 -1.11898 0.678089 6.49522 0 0 0 1.12983 -248.671 -159669 0 -100141 -39.8079 23219.4 1106.72 3265.97 0.05 
11924 1 -1.4842 -0.0133025 6.57491 0 0 0 0.0425373 -132709 -156145 -0.113487 0.000962287 -39.8079 -713.479 -4098.91 8296.87 0.05 
9405 1 -1.4952 0.136514 6.53974 0 0 0 152.075 67.4589 -157450 -0.115708 -1.27551 -39.8079 -6349.9 -4238.04 -3403.14 0.05 
12319 1 -0.0529317 0.160277 6.55372 0 0 0 -0.207636 85.6351 -158386 0 -2.23402 -39.8079 -4133.99 98548.8 -3973.59 0.05 
13254 1 -1.96442 0.529012 6.57076 0 0 0 -0.150736 27.6471 -155765 -0.291484 -2173.56 -39.8079 -7367.64 -23625.4 3565.41 0.05 
12761 1 -0.541568 0.533283 6.56423 0 0 0 0.273628 -327.086 -156298 0 -2384.35 -39.8079 16792.2 -12762.6 -880.602 0.05 
12566 1 -1.89932 0.275782 6.63003 0 0 0 77.5525 -317.074 -153211 -0.253193 -20.3553 -39.8079 -16700 2013.15 5382.68 0.05 
11242 1 -1.16453 0.580472 6.59815 0 0 0 -0.0422323 -200.699 -155175 0 -7008.73 -39.8079 11388 -13157.8 4496.39 0.05 
12900 1 -3.49091 0.80594 6.61782 0 0 0 308.584 -490.592 -151839 879812 -1.58406e+07 -39.8079 -23920.6 40304.7 -3110.64 0.05 
8681 1 -0.510976 0.82845 6.61642 0 0 0 -0.925695 -653.627 -153783 0 -5.43573e+07 -39.8079 -50699.1 11980.1 1235.89 0.05 
12455 1 -2.35565 -0.309752 6.72144 0 0 0 1.67213 168.304 -148866 -0.750454 36.6024 -39.8079 7925.15 12355.5 -4376.61 0.05 
4032 1 -1.64335 0.241545 6.71947 0 0 0 0.993796 310.862 -148998 -0.151621 -11.1084 -39.8079 9126.22 20299.1 3259.07 0.05 
7677 1 -1.36622 0.537986 6.72701 0 0 0 -0.253296 -136.755 -149126 -0.0927058 -2642.55 -39.8079 -7104.88 7447.28 662.835 0.05 
11415 1 -0.879388 0.831404 6.73431 0 0 0 238.893 -792.881 -148344 0 -6.46674e+07 -39.8079 -96357.5 -10605.3 1405.99 0.05 
8255 1 -3.2947 -0.429247 6.75856 0 0 0 175.969 68.4646 -146740 3064.91 299.529 -39.8079 -29492.7 -11449 4606.84 0.05 
10609 1 -1.77686 -0.319813 6.74189 0 0 0 1.51252 -165.219 -147349 -0.196579 43.509 -39.8079 27672.1 -1753.56 3676.46 0.05 
13781 1 -2.52503 -0.000995618 6.8185 0 0 0 31.3856 1.24119 -144580 -1.17462 4.02664e-07 -39.8079 5489.15 -18032.1 -657.816 0.05 
6492 1 -1.69884 0.75977 6.82037 0 0 0 110.525 -193.874 -142339 -0.16857 -1.87373e+06 -39.8079 16696.9 -12891.1 2389.16 0.05 
9165 1 -2.43728 -0.769864 6.86538 0 0 0 69.1415 51.9547 -141097 -0.931292 2.8785e+06 -39.8079 -44682.4 13410.2 -3042.24 0.05 
12363 1 -3.15407 -0.416771 6.85431 0 0 0 355.595 239.596 -142172 188.636 238.285 -39.8079 8225.56 -3555.31 5490.18 0.05 
6487 1 -3.36136 -0.327141 6.86866 0 0 0 396.788 223.839 -141599 15132.6 49.3477 -39.8079 12836.7 -22377.9 -7704.65 0.05 
7639 1 -0.954656 -0.194319 6.85428 0 0 0 -1.0914 165.7 -141912 0 4.56384 -39.8079 15457.6 21674 1082.4 0.05 
13278 1 -2.04522 0.822031 6.88793 0 0 0 147.39 -1102.47 -140221 -0.349392 -3.76442e+07 -39.8079 -69159.6 7820.31 8625.9 0.05 
11852 1 -2.18696 -0.540591 6.91498 0 0 0 209.781 264.778 -138928 -0.488831 2798.6 -39.8079 11897.3 19456.2 984.161 0.05 
3777 1 -2.74428 -0.0879608 6.93314 0 0 0 477.102 -46658.1 -137498 -1.79886 0.302326 -39.8079 2511.96 -4716.12 -2155.11 0.05 
10766 1 -2.77852 0.0292089 6.91564 0 0 0 274.323 -645.343 -139270 -1.76545 -0.0102628 -39.8079 -41199.7 -4787.51 941.861 0.05 
12207 1 -0.638593 0.551478 6.92919 0 0 0 -0.261889 -17318 -139063 0 -3568.43 -39.8079 -20262.1 -18969.9 601.985 0.05 
14013 1 -3.30285 -0.840463 7.00185 0 0 0 0.0316971 1361.03 -0.0987585 3680.43 1.12344e+08 -39.8079 -957.997 4.39134 3796.95 0.05 
12327 1 -1.10086 -0.82379 7.00053 0 0 0 0.0829453 580.5 -1.25554 -74282.2 6.18521e+07 766146 -4932.41 -18.995 4404.52 0.05 
6695 1 -0.781351 -0.831243 7.00087 0 0 0 0.0781568 864.443 -0.798314 0 6.40514e+07 -39.8079 -1135.51 -2.30872 278.721 0.05 
13221 1 -0.46028 -0.834086 7.00128 0 0 0 0.463799 846.307 -274.118 242179 7.12121e+07 1.5958e+06 -9869.56 -3145.31 -487.802 0.05 
13855 1 -1.76258 -0.757239 7.00277 0 0 0 28.3124 268.042 -0.17117 -2.48067e+06 4.82808e+07 430465 -1536.21 72.962 -5292.62 0.05 
1680 1 -1.26735 -0.77109 7.00983 0 0 0 0.0850666 -79041.7 -2.19915 -2.32023e+07 5.74943e+08 -1.61921e+07 -53815 66.6979 -2408.24 0.05 
12243 1 -0.70467 -0.752657 7.00116 0 0 0 73.0282 299.818 0.0980622 0 1.39937e+06 -39.8079 -5580.98 336.284 -7901.36 0.05 
11028 1 -0.585248 -0.767873 7.00049 0 0 0 -0.984516 234.799 -0.455893 0 2.64096e+06 -39.8079 -3918.86 -7.42684 5029.43 0.05 
5466 1 -0.115561 -0.785489 7.00644 0 0 0 -0.314561 361.398 -1.02513 0 5.81551e+06 -39.8079 -6037.33 -0.618337 -1906.12 0.05 
13426 1 -3.28708 -0.735609 7.00828 0 0 0 232.603 167.023 1.1289 2590.31 718356 -39.8079 -1244.43 3585.95 138.524 0.05 
11386 1 -2.48372 -0.719344 7.00804 0 0 0 283.658 259.419 -189.377 -1.05362 395286 -39.8079 1642.02 7663.69 -797.809 0.05 
7434 1 -1.82368 -0.686709 7.00845 0 0 0 13.6953 10878.9 -4.13517 7.38098e+06 -1.77904e+08 -2.63381e+06 2874.94 560.382 -994.949 0.05 
11448 1 -3.35509 -0.659184 7.00548 0 0 0 340.204 0.399052 -0.21996 12883.8 56530 -39.8079 0.00307506 769.836 372.976 0.05 
9043 1 -2.28019 -0.662279 7.00118 0 0 0 336.629 0.449536 -0.206776 -0.617305 61942.1 -39.8079 -0.656762 1489.2 -132.249 0.05 
9387 1 -1.88856 -0.635776 7.00195 0 0 0 373.715 131.96 -3.26749 -6.75433e+06 1.38686e+08 98659.8 -3346.59 2327.92 291.672 0.05 
13214 1 -1.70528 -0.642327 7.00819 0 0 0 340.558 265.768 -0.248723 -0.170689 34837.4 -39.8079 -3942 605.583 6145.25 0.05 
13698 1 -0.548639 -0.636335 7.00081 0 0 0 363.755 64.2964 -3.0082 -397190 7.47664e+07 -3.90336e+06 -1063.63 2473.55 1705.49 0.05 
12790 1 -0.405689 -0.661972 7.0103 0 0 0 151699 -15.2258 -7.84511 -2.98955e+09 5.2108e+07 3.13362e+07 -1088.56 -99618.2 -6017.94 0.05 
3890 1 -3.45925 -0.604567 7.00435 0 0 0 443.991 0.0924791 -0.0222088 277562 12714.6 -39.8079 1.2815 3947.3 792.38 0.05 
14036 1 -2.37624 -0.629212 7.00114 0 0 0 394.682 174.382 -0.0344961 -0.792198 24271.8 -39.8079 -2710.41 2986.9 -5060.3 0.05 
13329 1 -1.33313 -0.596231 7.00407 0 0 0 431.973 46.1212 0.132136 -0.0877471 10307.2 -39.8079 -1454.34 4203.75 -11198.5 0.05 
5912 1 -0.360269 -0.602315 7.00152 0 0 0 246.68 248.603 0.0649761 8.83454e+08 8.63686e+07 3.44412e+06 -2748.45 3663.26 1286.03 0.05 
11316 1 -2.81445 -0.558874 7.00169 0 0 0 292.072 -10.5897 -0.545864 1.74065e+06 6.54402e+07 -2.36003e+06 -62.2753 4760.68 -2541.87 0.05 
11479 1 -2.46129 -0.537301 7.00581 0 0 0 301.33 294.304 -52.3371 1.459e+07 -7.4143e+06 -7.39877e+08 -4352.63 2486.06 3989.36 0.05 
12594 1 -0.817143 -0.550569 7.0068 0 0 0 303.89 279.528 -0.794491 0 3496.03 -39.8079 -177.296 4239.65 4811.8 0.05 
10556 1 -0.71199 -0.542697 7.00977 0 0 0 309.677 352.605 -0.5618 0 2932.07 -39.8079 -5179.17 3843.68 -3440.37 0.05 
9307 1 -0.262594 -0.538 7.00187 0 0 0 288.058 350.85 -0.425928 -2.88537e+06 1.14255e+08 1.01351e+06 -3134.69 4748.44 -1513.4 0.05 
6295 1 -3.22411 -0.473908 7.0091 0 0 0 131.27 0.622833 -204.344 -1.51554e+06 4.09256e+07 301602 -5030.48 443.541 4960.91 0.05 
12205 1 -3.1225 -0.502969 7.00444 0 0 0 228.169 -112.368 -76.5415 767887 18840.3 -578442 -2844.77 2290.09 794.644 0.05 
7966 1 -2.02462 -0.521904 7.00055 0 0 0 271.21 261.38 -1.14486 -0.333383 1866.34 -39.8079 -5905.43 4623.78 3846.23 0.05 
10984 1 -1.50532 -0.507314 7.00406 0 0 0 247.657 161.594 -93.4803 361324 153677 -1.1365e+06 -3788.77 -309.696 490.159 0.05 
13525 1 -1.37406 -0.493713 7.00957 0 0 0 221.99 326.713 -0.554452 -1.00325e+06 -346506 346557 -1858.26 2851.14 4024.87 0.05 
5517 1 -3.51224 -0.433749 6.99999 0 0 0 7125.09 -6.4609 -3.13232 -4.59866e+07 981505 420088 -2.53091 -2120.27 3560.6 0.05 
13644 1 -2.15888 -0.469945 7.00192 0 0 0 110.369 295.127 -157.608 -0.456527 648.052 -39.8079 3610.94 -316.962 8389.43 0.05 
7418 1 -1.68384 -0.450988 7.00079 0 0 0 -0.421103 173.938 -269.522 -6.71975e+06 -1.06647e+09 -3.3701e+07 2328.73 -2165.99 699.749 0.05 
3483 1 -0.640578 -0.471824 7.0094 0 0 0 131.978 -17.4749 -0.788114 -333863 1.08494e+08 2.95514e+06 1389.31 1752.81 2665.3 0.05 
6072 1 -3.06718 -0.415066 7.00656 0 0 0 0.647261 -74.0542 -100.477 40.6637 231.008 -39.8079 -2785.02 -4322.01 701.958 0.05 
11339 1 -2.07383 -0.375486 7.0062 0 0 0 2.34727 428.744 -117.104 -0.3732 114.039 -39.8079 -6443.07 -4632.08 -1266.77 0.05 
12492 1 -1.42302 -0.406033 7.00997 0 0 0 -0.63705 285.086 -0.341047 -0.102059 196.186 -39.8079 -1611.93 4.32213 4928.68 0.05 
2539 1 -1.1615 -0.407865 7.0089 0 0 0 0 0.00104937 -0.00020601 0 202.774 -39.8079 0 0 0 0.05 
6261 1 -0.775942 -0.372875 7.00043 0 0 0 0.271555 338.309 -309.17 -15539.1 -114512 -60725.9 -2406.63 3745.23 -452.354 0.05 
11157 1 -0.354932 -0.413817 7.00165 0 0 0 -0.363799 253.588 -0.0297378 0 225.828 -39.8079 -2619.93 -3.18921 5536.32 0.05 
12860 1 -0.240008 -0.410562 7.00328 0 0 0 0.0777527 171.864 0.0340818 0 212.895 -39.8079 -1701.5 2.05304 -5876.28 0.05 
3298 1 -2.40152 -0.353318 7.008 0 0 0 65.2208 251.121 -207.485 -0.846923 77.4976 -39.8079 -7407.33 4969.75 -8391.18 0.05 
13080 1 -1.63049 -0.327072 7.0038 0 0 0 0.290627 113.264 -0.233787 -0.148 49.2888 -39.8079 -2863.33 -0.449913 3777.28 0.05 
11927 1 -1.26368 -0.324553 7.00107 0 0 0 0.226222 -336.624 -0.503212 -0.0783715 47.2003 -39.8079 1481.56 0.0700482 588.26 0.05 
246 1 -1.97832 -0.308883 7.00776 0 0 0 28.2882 226.813 0.0252281 4.28544e+08 -1.94369e+07 5.54886e+06 -4387.93 183.019 -5234.13 0.05 
13413 1 -0.751378 -0.272549 7.00899 0 0 0 0.848466 310.04 -73.0388 285824 803858 -51470.4 3377.47 38.3882 -4016.1 0.05 
10082 1 -0.0747432 -0.300843 7.00178 0 0 0 0.0924326 -57921.1 -3.97024 -2.3039e+07 7.54298e+08 -8.42388e+06 -39973.8 1.46242 -25719.4 0.05 
13443 1 -2.6268 -0.237348 7.00764 0 0 0 313.471 235.226 -303.185 -1.50941 10.2962 -39.8079 -8922.86 -1780.99 4818.83 0.05 
11713 1 -2.15495 -0.243512 6.94742 0 0 0 187.79 -811.171 -137641 8.89331e+06 -6.56457e+06 4.5133e+08 12877.2 -8852.71 6541.19 0.05 
11055 1 -1.5872 -0.225424 7.00949 0 0 0 0.0299349 245.704 -0.216181 -0.13657 8.27527 -39.8079 -5405.49 -1.27591 3018.14 0.05 
9031 1 -1.07492 -0.256138 7.00496 0 0 0 -0.173324 288.445 -0.0675311 0 14.4183 -39.8079 -2013.9 -0.121055 4644.63 0.05 
10863 1 -3.55781 -0.176182 7.00655 0 0 0 4552.96 -2.06941 -1.31406 -1.03139e+07 -1.39893e+06 -1.13244e+06 25.9465 -147.148 4636.99 0.05 
11894 1 -3.1742 -0.176292 7.00157 0 0 0 96.1527 1.44168 -0.793554 -26834.6 1.65735e+06 -882967 -31.4925 741.065 4076.23 0.05 
4622 1 -1.82237 -0.209194 7.01014 0 0 0 -0.19448 -334.907 -0.538671 -0.215589 6.09823 -39.8079 1599.97 0.0975273 -596.71 0.05 
7242 1 -1.01376 -0.158172 7.00797 0 0 0 0.329506 303.347 -184.756 0 2.13099 -39.8079 1617.19 5350.99 -3972.64 0.05 
12122 1 -0.561728 -0.18534 7.00188 0 0 0 1.44739 -1.15863 -56.774 2.60885e+07 -2.2782e+07 -8.94926e+08 -580.068 -550.164 -3.54952 0.05 
13658 1 -0.159217 -0.165731 7.00043 0 0 0 -0.0761403 -113.649 -100.581 0 2.51984 -39.8079 -2639.43 -3401.52 -4764 0.05 
12127 1 -2.82774 -0.11014 7.00672 0 0 0 0.149024 -17.5509 -51.8904 -1.45119 0.623099 -39.8079 -1219.28 2152.68 -731.6 0.05 
9454 1 -2.46739 -0.122789 6.95208 0 0 0 23.8613 148.175 -137789 -1.00891 0.892091 -39.8079 8704.99 5585.32 2765.96 0.05 
12444 1 -0.778913 -0.158046 7.00828 0 0 0 3.61334 -138991 -112.707 -2.1538e+07 3.39718e+09 1.45477e+07 19871.1 -4012.72 -15715.1 0.05 
6839 1 -2.93687 -0.0589428 7.0006 0 0 0 94.4233 169.937 -2.29836 3.47091e+07 -9.49575e+08 -1.3812e+07 -1011.24 3558.16 -5110.46 0.05 
9952 1 -1.27571 -0.0703575 7.0053 0 0 0 -0.277235 -336.139 -0.246268 -0.0799025 0.150037 -39.8079 792.186 0.398672 -1303.01 0.05 
13065 1 -0.446808 -0.0701493 7.00084 0 0 0 0 7.69333e-07 -0.00020601 0 0.148661 -39.8079 0 0 0 0.05 
11753 1 -2.68481 -0.00864137 7.0056 0 0 0 154.692 -45.3718 -133.829 -323056 374158 471272 3670.4 1685.64 2489.91 0.05 
13038 1 -2.38486 -0.0468902 7.01027 0 0 0 160.982 206.828 -0.561297 -0.81041 0.0430901 -39.8079 -2305.07 5521.76 -8074.61 0.05 
9721 1 -2.21384 -0.0453287 7.00071 0 0 0 122.633 106.586 -0.219274 -0.522332 0.0388656 -39.8079 -727.851 4821.91 3058.83 0.05 
11177 1 -1.6597 -0.0166351 7.00187 0 0 0 143.608 -18.4724 -0.470533 -0.156387 0.00188387 -39.8079 887.624 5539.25 74.6694 0.05 
10773 1 -0.273208 -0.043924 7.00216 0 0 0 0.335501 276.649 -136.982 0 0.0353143 -39.8079 1679.57 3050.63 -4799.96 0.05 
9438 1 -3.55308 0.0218738 7.00377 0 0 0 4838.17 4.36008 2.29219 -1.24021e+07 410780 -331145 -120.987 2305.36 -920.189 0.05 
1157 1 -1.05369 0.021998 7.00782 0 0 0 -0.912881 43.5993 -0.963216 1.24085e+07 -8.80029e+08 1.40211e+07 -260.003 0.678175 244.146 0.05 
2032 1 -0.422475 0.0502767 7.00115 0 0 0 0 -2.75879e-07 -0.00020601 0 -0.053309 -39.8079 0 0 0 0.05 
5587 1 -2.27503 0.0582498 7.00885 0 0 0 49.1471 -0.000492713 -4.07737e-06 -0.609232 -0.0836974 -39.8079 0.0239871 1769.72 -1519.39 0.05 
4228 1 -2.0392 0.0881059 7.00419 0 0 0 120.187 85.6498 -0.141667 -0.344618 -0.303911 -39.8079 -568.919 4563.63 -5773.72 0.05 
5683 1 -1.90273 0.0581551 7.00453 0 0 0 24.2509 -107.826 0.000108845 192579 48762.9 -135620 833.546 926.826 -5260.32 0.05 
11421 1 -3.55434 0.155121 7.0034 0 0 0 4737.38 1.61945 1.93825 -2.78368e+07 839133 -613386 -53.6083 2598.55 743.395 0.05 
1592 1 -1.44036 0.116917 7.00923 0 0 0 175.767 236.509 -226.107 -0.105147 -0.758174 -39.8079 -3519.82 91.4354 5863.85 0.05 
3720 1 -0.322288 0.112331 7.00094 0 0 0 -2.24839 175.721 -3.42156 4.13226e+06 3.67757e+08 6.88372e+06 -1831.83 -3.09035 1041.86 0.05 
11518 1 -3.2494 0.18617 7.00422 0 0 0 0.470304 -0.242335 -231.332 1166.48 -3.87438 -39.8079 -5741.44 -2678.64 -8.76268 0.05 
8568 1 -3.02182 0.190463 7.00797 0 0 0 1.26801 -192.696 -0.129782 17.9565 -4.22552 -39.8079 -835.018 12.1587 1442.62 0.05 
11832 1 -2.59856 0.185935 7.00213 0 0 0 -7.31638e-06 -1.99546e-05 -0.00020601 -1.41377 -3.85589 -39.8079 0 0 0 0.05 
11037 1 -1.58331 0.168904 7.00279 0 0 0 74.2255 233.497 -118.877 -0.135598 -2.69944 -39.8079 -6981.03 3785.92 4127.88 0.05 
5472 1 -1.06037 0.185038 7.00206 0 0 0 -0.480115 0.438013 -0.479783 0 -3.78605 -39.8079 -36.5086 0.40685 1.12942 0.05 
8636 1 -0.449457 0.160319 7.00617 0 0 0 0.00491902 -128.962 -0.0310239 0 -2.2361 -39.8079 1155.14 -1.17856 5072.07 0.05 
13760 1 -3.59109 0.254949 7.00093 0 0 0 1353.75 -18.2312 -0.93147 1.12125e+08 -1.39592e+08 -8.55967e+06 578.095 2121.63 683.095 0.05 
10467 1 -3.39086 0.225085 7.00623 0 0 0 0.173034 -4.25571e-05 -0.00020601 33434.8 -8.22345 -39.8079 0 0 0 0.05 
3741 1 -1.25447 0.226563 7.0102 0 0 0 0.444528 -331.801 -0.221666 -0.077223 -8.4513 -39.8079 -7.20369 -1.50365 1997.48 0.05 
6836 1 -0.73704 0.275672 7.00358 0 0 0 0.329174 -200.019 -0.189024 0 -20.3165 -39.8079 1863.39 -3.21475 6122.28 0.05 
5181 1 -3.31401 0.347257 7.00143 0 0 0 337.716 -162.149 -4.08615 -66319.7 -2.00335e+08 697634 2018.67 5772.78 -6732.54 0.05 
5457 1 -2.83156 0.322904 7.00513 0 0 0 219.047 0.621243 0.199354 -1.4064 -45.8822 -39.8079 -7.83823 5332.69 -4936.98 0.05 
9264 1 -2.58903 0.319086 7.01012 0 0 0 175.884 -20.2834 -1.18022 2.54552e+08 -1.14543e+08 8.4185e+06 426.986 4663.7 -2873.78 0.05 
7879 1 -2.47532 0.352238 7.01011 0 0 0 202.85 71.6002 -1.41559 1.74041e+08 -1.32128e+08 -4.04987e+06 2200.3 -564.225 -5246.13 0.05 
13743 1 -2.13996 0.356259 7.00112 0 0 0 120.184 20.3847 -6.56595 4.11846e+08 2.20172e+08 -7.97147e+07 1026.19 149.817 -3415.42 0.05 
12717 1 -1.96599 0.367096 7.00125 0 0 0 0.0536087 -115.084 -0.0407894 53878.7 -208038 -45122.5 2671.13 3.30378 4018.19 0.05 
5648 1 -1.35464 0.329275 7.00358 0 0 0 -0.543435 142.06 -2.99763 -1.77696e+06 -1.53431e+08 -8.3206e+06 -1020.1 -37.2944 -8599.52 0.05 
13166 1 -2.12923 0.417547 7.00304 0 0 0 71913.1 144.336 -4.80938 -1.74563e+09 -1.14847e+08 -1.64814e+07 1191.98 -52140 -19213.6 0.05 
11062 1 -0.771389 0.403502 7.00206 0 0 0 0.22249 -290.814 -0.61954 0 -187.459 -39.8079 2854.09 -2.63378 3931.26 0.05 
12140 1 -0.470411 0.381762 7.00346 0 0 0 -0.143833 -443.281 -0.391792 0 -127.344 -39.8079 5182.57 -4.78839 457.63 0.05 
4450 1 -3.09795 0.435355 7.00508 0 0 0 317.884 -118.203 -0.286192 875697 443285 -41973.3 -1702.14 -168.965 -569.773 0.05 
13401 1 -1.49074 0.44649 7.007 0 0 0 -0.519861 -30.6921 -139.21 -1.91974e+06 -1.00521e+08 -3.09548e+06 4091.42 440.046 -4295.66 0.05 
13997 1 -1.31737 0.437253 7.0015 0 0 0 0.294388 -243.852 -0.3391 -124247 -8.36159e+07 4.69687e+06 4098.05 12.5886 -8442.86 0.05 
12657 1 -1.2116 0.458603 7.00115 0 0 0 0.149443 -231.993 -0.112319 0 -520.371 -39.8079 996.856 -2.47231 6286.94 0.05 
13330 1 -0.0551599 0.428953 7.00397 0 0 0 0.727938 -322.146 -0.203231 0 -297.908 -39.8079 -283.101 -2.77456 2996.53 0.05 
12618 1 -3.58661 0.484681 7.00063 0 0 0 1147.26 -184.074 -1.49421 8.36399e+07 919564 -578506 6139.96 661.965 1777.45 0.05 
2817 1 -2.63605 0.483437 7.00439 0 0 0 185.563 -233.512 -1.24097 -1.54044 -845.519 -39.8079 5470.18 -160.668 9756.99 0.05 
10857 1 -2.38582 0.47981 7.00861 0 0 0 208.251 69.2149 -0.0692155 -0.81247 -786.738 -39.8079 1172.22 -514.525 4611.46 0.05 
1235 1 -2.11836 0.525376 7.00693 0 0 0 1.26447 -386.145 -0.862529 -0.4143 -2010.07 -39.8079 4537.35 2.17799 -983.791 0.05 
13078 1 -1.40171 0.50926 7.00353 0 0 0 -1.8608 -22.0377 -265.037 1.28033e+07 4.23505e+08 1.43196e+07 369.621 4504.88 -647.393 0.05 
12409 1 -0.163606 0.481762 7.00725 0 0 0 0.00492049 -89.4897 -0.0196032 0 -817.794 -39.8079 -239.633 0.847826 -3950.1 0.05 
10883 1 -3.17127 0.532975 7.00859 0 0 0 1.30683 -61.9117 -1.005 1.4651e+06 -1.11015e+08 -2.52876e+06 402.937 18.0802 -589.671 0.05 
3048 1 -3.04698 0.570868 7.00356 0 0 0 1.50766 -180.219 -0.252781 28.4123 -5577.92 -39.8079 -1506.58 23.152 -747.033 0.05 
3352 1 -1.5155 0.553488 7.00713 0 0 0 -1.57609 -107.903 -3.29675 -8.29093e+06 -7.49936e+08 1.4097e+07 1744.97 -34.424 -4681.29 0.05 
13715 1 -1.90686 0.599968 7.00445 0 0 0 -2.90522 -85.6625 -73.5594 -747396 65592.1 -72051.1 3302.24 -2182.72 -3659.43 0.05 
13544 1 -1.42288 0.609144 7.00731 0 0 0 0.169524 -311.443 -76.048 -1.00981e+07 3.45984e+08 6.82064e+06 9598.18 2166.4 1618.93 0.05 
13720 1 -3.03606 0.677716 7.00919 0 0 0 319.906 -197.472 -0.495887 23.333 -98987.5 -39.8079 -2480.01 6102.85 -5891.86 0.05 
10007 1 -2.65527 0.639647 7.00419 0 0 0 419.229 -315.961 -2.42921 -1.60337 -32323.5 -39.8079 6108.15 5255.52 -8261.48 0.05 
11300 1 -2.10396 0.642005 7.00817 0 0 0 171.247 -437.76 -1.05204 -0.400439 -34524.2 -39.8079 5493.62 4361.95 -5156.32 0.05 
8166 1 -1.99956 0.639156 7.0005 0 0 0 126.142 -218.467 -0.750562 3.25271e+08 7.46499e+06 8.86108e+06 5031.66 3730.31 556.427 0.05 
13670 1 -1.26 0.66733 7.00023 0 0 0 0.224886 -333.204 -0.406505 -0.0779098 -72041 -39.8079 1502.69 -0.408066 1134.51 0.05 
5082 1 -0.782969 0.649865 7.00554 0 0 0 -0.0708252 -313.747 -0.530688 0 -43134.8 -39.8079 2508.34 0.396106 2485.1 0.05 
12413 1 -0.277157 0.637211 7.00322 0 0 0 -0.0850782 -17.072 -0.323064 3.21341e+06 5.15749e+08 6.43824e+06 264.184 -0.362456 47.38 0.05 
1098 1 -0.077691 0.650076 7.00135 0 0 0 -0.280266 -342.37 -0.0682286 0 -43396.5 -39.8079 97.9772 0.0352206 -447.284 0.05 
11065 1 -0.676985 0.687266 7.00172 0 0 0 0 -0.692467 -0.00020601 0 -133787 -39.8079 0 0 0 0.05 
13682 1 -3.49922 0.779028 7.00028 0 0 0 212.882 -118.343 -310.789 6.86987e+06 -3.48318e+07 -2.46872e+06 -3739.43 6891.19 -2239.28 0.05 
13918 1 -3.39728 0.768473 7.00287 0 0 0 334.549 -114.988 -0.667701 -390552 -1.20204e+07 -707659 1190 7548.85 -7693.56 0.05 
8765 1 -2.64821 0.742989 7.00021 0 0 0 458.574 -289.86 0.209147 -1.58056 -953576 -39.8079 6231.04 8990.58 8896.36 0.05 
5525 1 -1.71873 0.759444 7.00402 0 0 0 24.1807 -59.6649 -325.455 4.33143e+08 -3.91255e+07 -2.1906e+07 836.15 3726.64 -302.138 0.05 
13280 1 -1.58285 0.7521 7.00241 0 0 0 0.980146 -18.5851 -0.165973 475667 -1.14717e+07 -940813 169.951 11.839 -46.4706 0.05 
1151 1 -1.13884 0.740978 7.007 0 0 0 -0.143702 -32.2757 -200.127 0 -882023 -39.8079 6297.96 1939.14 -1328.72 0.05 
12807 1 -0.281147 0.748674 7.00115 0 0 0 2.3029 -225.099 -4.91861 -536612 -6.7683e+07 770157 2012.39 -9.80222 1114.92 0.05 
7302 1 -3.51271 0.820731 7.00799 0 0 0 397.426 -3652.95 -299.454 6.73556e+06 2.48461e+07 -3023.6 2438.9 4786.28 325.741 0.05 
12715 1 -3.09435 0.795972 7.00521 0 0 0 532.169 -498.608 -3.2702 -4.76164e+06 -4.52846e+08 -6.95781e+06 1459.73 7288.59 3836.98 0.05 
12133 1 -2.354 0.823139 7.0089 0 0 0 159.873 -3537.35 1.42427 -230363 -2.03255e+06 73242.6 -1293.76 4440.71 3307.53 0.05 
12721 1 -0.945827 0.83306 7.00855 0 0 0 0.173752 -2672.37 -197.591 -293028 -6.05876e+07 1.49327e+06 5135.73 6432.99 -462.778 0.05 
12971 1 -0.488418 0.824641 7.00894 0 0 0 0.588342 -804.704 -375.896 -109694 -4.25638e+07 -532561 5311.36 -1726.21 -645.141 0.05 
8282 1 -0.132561 0.802838 7.00935 0 0 0 0.0259048 -496.201 -0.159488 0 -1.35169e+07 -39.8079 5218.66 8.24512 -5141.88 0.05 
9812 1 -3.48903 -0.808649 7.04741 0 0 0 8072.09 4416.24 6.16499 -2.27943e+08 -4.6249e+07 301683 -3185.32 -621 7242.95 0.05 
3315 1 -3.52256 -0.807348 7.04711 0 0 0 278.44 4533.65 3.54381 7.52498e+07 -5.69477e+07 847605 -925.331 -20.7972 135.937 0.05 
13799 1 -3.51172 -0.789915 7.01344 0 0 0 188.65 230.51 -16.7138 6.73778e+07 6.75994e+07 -4.37829e+06 -2981.44 3118.41 786.419 0.05 
3503 1 -3.40123 -0.793858 7.03287 0 0 0 12.0151 5368.43 3.99651 4.02353e+07 -5.4019e+07 2.42221e+06 -623.199 60.6299 -22.8159 0.05 
196 1 -3.09802 -0.838867 7.01095 0 0 0 -0.224005 1814.47 -0.0420819 -1.26548e+07 -2.47274e+08 -1.61791e+06 -5279.79 -0.458388 1828.17 0.05 
5328 1 -2.50457 -0.814305 7.04205 0 0 0 24.3867 496.918 -132.569 -1.11327 2.46107e+07 -39.8079 -6425.42 5100.7 6678.67 0.05 
2998 1 -2.28318 -0.826139 7.03487 0 0 0 2.2569 3312.23 -0.635328 2.06021e+06 1.46594e+07 -625677 -553.7 -9.22106 630.622 0.05 
8924 1 -2.1772 -0.833657 7.04028 0 0 0 0.766619 956.656 0.0312435 -0.477309 7.3978e+07 -39.8079 100.661 -4.72561 5943.4 0.05 
3847 1 -1.89517 -0.802979 7.02185 0 0 0 0.728655 515.692 -1.2273 -0.250968 1.36146e+07 -39.8079 -4282.22 -6.35898 3437.52 0.05 
11919 1 -1.71659 -0.835797 7.03998 0 0 0 144.309 860.773 -0.566844 123948 8.23461e+07 -589315 4339.97 4628.73 6654.25 0.05 
7511 1 -1.59547 -0.822188 7.05581 0 0 0 8.00437 734.668 0.0338149 -0.138667 3.79788e+07 -39.8079 1055.26 206.745 -73.7087 0.05 
1959 1 -1.47933 -0.793507 7.02183 0 0 0 92.0937 5462.9 -327.899 -1.43081e+06 -2.0533e+07 1.02835e+06 -6445.39 2632.47 -263.819 0.05 
7214 1 -1.37451 -0.825869 7.04019 0 0 0 52.8846 722.075 0.118469 -0.0940032 4.68142e+07 -39.8079 1205.58 1709.53 -4107.52 0.05 
2483 1 -1.23788 -0.799699 7.02338 0 0 0 1.81024 309.568 1.28338 2.32023e+07 -5.60365e+08 1.6192e+07 -1677.85 28.8993 2338.55 0.05 
1945 1 -0.921268 -0.792968 7.05847 0 0 0 -2.49816 5406.19 3.7855 -909111 -5.78656e+07 1.74048e+06 -2225.99 31.1773 710.382 0.05 
4837 1 -3.58622 -0.778269 7.04035 0 0 0 2113.77 190.395 5.27803 6.22308e+07 3.02602e+07 3.00905e+06 -2771.99 7237.97 3906.05 0.05 
10435 1 -3.40162 -0.782158 7.02074 0 0 0 94.2656 177.458 -4.1523 3.14678e+07 6.63092e+07 -4.59307e+06 -841.047 3637.24 -1883.01 0.05 
1442 1 -3.17538 -0.758442 7.02102 0 0 0 135.355 296.016 -2.00095 708703 3.59772e+06 -229714 -580.25 5224.97 -6557.9 0.05 
5196 1 -3.04843 -0.76159 7.0274 0 0 0 13.2579 -78619.4 1.79949 1.9727e+06 8.74012e+08 -5.4586e+06 -12339.6 8.30366 1651.31 0.05 
9943 1 -2.93197 -0.770542 7.01532 0 0 0 75.5003 472.775 1.5356 -66455.4 1.3683e+07 -477464 -2080.85 3118.83 -1320.94 0.05 
3695 1 -2.81582 -0.784507 7.05284 0 0 0 192.496 303.318 1.1443 -1.19141e+06 1.652e+07 1.01152e+06 1089.81 4294.99 -9657.31 0.05 
2986 1 -2.33921 -0.774164 7.0239 0 0 0 114.777 53.2472 -24.3159 -1.48e+06 2.28932e+07 342164 -249.094 3141.85 -1237.63 0.05 
10357 1 -2.1198 -0.75334 7.01963 0 0 0 178.944 342.189 -0.149788 -0.415725 1.43864e+06 -39.8079 688.288 4857.42 -5131.27 0.05 
5135 1 -1.13204 -0.748098 7.0594 0 0 0 9.89154 88.8591 -1.56229 1.12129e+06 3.82273e+07 -1.33503e+06 -217.586 -192.244 -87.5446 0.05 
7950 1 -0.983717 -0.778779 7.02039 0 0 0 -0.709428 321.319 -1.53229 -495643 3.47022e+07 -495683 -1151.38 30.2401 -4305.29 0.05 
8455 1 -0.880173 -0.759856 7.02995 0 0 0 3.26266 79.7675 -2.32078 1.40475e+06 3.76108e+07 -1.24491e+06 -962.095 0.717575 -1500.9 0.05 
14035 1 -0.50284 -0.768359 7.06031 0 0 0 2.26784 302.755 -280.662 -1.29109e+06 4.45694e+07 -264930 7794.16 2639.97 -3562.16 0.05 
3099 1 -0.402941 -0.762898 7.03144 0 0 0 0.481662 386.251 -91.7143 -549671 4.69304e+06 -1.43772e+06 -1844.79 -3544.91 2366.07 0.05 
7914 1 -0.276864 -0.743528 7.01916 0 0 0 0.218311 571.294 -0.696762 0 973791 -39.8079 -3601.38 20.2434 2843.57 0.05 
9896 1 -3.06892 -0.703141 7.01043 0 0 0 311.298 -57.1586 -0.585171 1.06822e+07 -5.2279e+08 7.0764e+06 -3940.47 2032.65 -5589.3 0.05 
3621 1 -2.665 -0.727624 7.01338 0 0 0 279.067 433.785 0.0169178 -1.63397 533391 -39.8079 -4624.46 4286.01 -7417.4 0.05 
8987 1 -2.2207 -0.731204 7.04798 0 0 0 388.468 33.5246 -0.302435 -0.531319 608886 -39.8079 481.978 3582.12 -2830.72 0.05 
8822 1 -1.96305 -0.70647 7.04468 0 0 0 521.113 389.739 -0.393225 -975523 5.46712e+07 1.18516e+06 -265.981 4666.05 -5934.81 0.05 
12201 1 -1.59192 -0.692819 7.01804 0 0 0 291.189 378.314 0.0540974 -0.137762 160077 -39.8079 -5824.46 -1008.45 -5693.17 0.05 
5056 1 -1.49031 -0.712923 7.04657 0 0 0 204.836 195.493 -100.942 1.43081e+06 2.93605e+07 -1.02843e+06 3903.69 -3434.06 -11253.5 0.05 
13416 1 -0.0534997 -0.705195 7.01741 0 0 0 0.512183 208.848 -0.347379 0 241612 -39.8079 -3621.2 0.0576502 -5308.31 0.05 
5834 1 -3.55078 -0.660375 7.01345 0 0 0 420.31 0.336677 0.125055 1.21823e+07 58548.8 -39.8079 -0.0222797 -488.626 187.09 0.05 
13018 1 -2.96521 -0.646808 7.03241 0 0 0 313.562 195.263 0.586214 5.63218 39533.4 -39.8079 2715.75 -3248.88 5486.66 0.05 
9436 1 -2.74322 -0.658827 7.01093 0 0 0 341.487 259.053 -0.463179 -3.30901e+07 -1.038e+09 -8.38888e+06 -614.604 -62.4832 3423.77 0.05 
1637 1 -2.05717 -0.662438 7.02217 0 0 0 330.595 444.935 0.0449878 -0.35911 62236.4 -39.8079 -2667.42 -1765.54 -2225.29 0.05 
3779 1 -1.79838 -0.671434 7.04411 0 0 0 289.252 209.434 3.78876 -641322 7.5481e+07 2.62843e+06 -2247.17 -4506.86 -1937.77 0.05 
8682 1 -1.3879 -0.679293 7.04812 0 0 0 372.883 426.958 0.578376 440635 4.07762e+07 184677 15.6219 -1923.63 1492.51 0.05 
12115 1 -1.23025 -0.632651 7.03041 0 0 0 251.455 13390.3 -1.72457 4.96295e+06 -1.47041e+08 146308 -324.161 -2379.55 -1605.25 0.05 
275 1 -1.21466 -0.648907 7.04166 0 0 0 417.03 89.6288 3.35487 -3.22141e+06 1.02005e+08 -897835 -5772.54 -438.59 2706.15 0.05 
10520 1 -1.02881 -0.673466 7.02697 0 0 0 318.279 330.474 0.214896 0 86811.7 -39.8079 1152.77 -2393.44 -3672.98 0.05 
6423 1 -0.929805 -0.656091 7.04164 0 0 0 296.46 0.232699 0.121488 0 51635.3 -39.8079 -0.798098 -4328.2 816.171 0.05 
73 1 -0.763892 -0.653528 7.04113 0 0 0 297.157 540.573 0.3096 0 47931.2 -39.8079 -2834.11 -4257.59 634.06 0.05 
2585 1 -0.643206 -0.673127 7.04487 0 0 0 286.353 -9.9106 -0.383784 0 85914.6 -39.8079 1817.14 -4619.29 -7029.47 0.05 
6037 1 -0.538401 -0.681939 7.03715 0 0 0 274.49 11035.7 -9.70134 218638 -1.63732e+08 3.57305e+06 -3648.01 -3139.45 -8330.32 0.05 
6401 1 -0.453244 -0.658719 7.02515 0 0 0 250.321 133.587 -0.237533 1.09797e+09 1.19848e+08 -4.23889e+07 -1930.02 -1696.63 1854.79 0.05 
5416 1 -0.40422 -0.659988 7.05938 0 0 0 127.098 12178.6 10.7386 1.00876e+09 -2.62293e+08 8.79084e+06 -4668.48 -2876.98 8664.61 0.05 
3121 1 -0.274614 -0.643476 7.05734 0 0 0 23.3642 628.219 0.192803 0 35980.1 -39.8079 1663.35 -257.931 2121.46 0.05 
2309 1 -3.24976 -0.606912 7.02258 0 0 0 452.212 205.986 0.463179 1.22004e+06 1.14255e+08 -831962 -127.423 52.922 3304.71 0.05 
7075 1 -3.11512 -0.600022 7.02205 0 0 0 460.949 -59.255 1.48367 -767685 -6251.08 578362 -3470.76 389.089 -2692.65 0.05 
10142 1 -2.86422 -0.623325 7.04069 0 0 0 155.326 14060 -5.89459 1.24698e+06 -2.38391e+08 1.94414e+06 3099.61 4331.5 -3685.31 0.05 
13501 1 -2.71719 -0.596433 7.01576 0 0 0 152.298 -159595 0.517034 1.50458e+07 1.8924e+09 -5.31866e+06 16109.1 4262.36 -6408.51 0.05 
13928 1 -2.65505 -0.623667 7.06046 0 0 0 339.712 513.136 0.0609069 1.80444e+07 -8.54307e+08 1.37074e+07 -2007.73 -6851.18 -994.77 0.05 
12245 1 -0.178414 -0.622452 7.03066 0 0 0 112.523 429.225 2.43993 9.00053e+08 1.14396e+08 -1.58522e+06 399.477 283.611 -2469.3 0.05 
2360 1 -3.53629 -0.529111 7.0533 0 0 0 419.728 0.509658 -0.623875 3.24171e+07 -455227 -543061 -24.6013 -1096.22 1362.04 0.05 
7814 1 -3.21642 -0.571878 7.02359 0 0 0 17.8307 16463.5 -0.683049 297979 -1.5516e+08 530241 7976.59 35.3053 3849.92 0.05 