ITEM: TIMESTEP
330000
ITEM: NUMBER OF ATOMS
14052
ITEM: BOX BOUNDS ff pp ff
-3.75 3.75
-1 1
0 10
ITEM: ATOMS id type x y z ix iy iz vx vy vz fx fy fz omegax omegay omegaz radius 
13821 1 -1.59504 -0.510283 4.20108 0 0 0 0.275183 105.579 -171857 -0.138557 1461 -39.8079 4511.3 3783.37 -2558.63 0.05 
9412 1 -2.15413 -0.35159 4.19262 0 0 0 1.89464 14.6513 -171840 -0.451321 75.2137 -39.8079 -9278.38 13846.1 5701.27 0.05 
10206 1 -3.22393 0.650566 4.23845 0 0 0 223.626 -338.439 -170107 700.023 -44009.6 -39.8079 5136.14 -10974 -8981.36 0.05 
12795 1 -2.98397 -0.319109 4.29279 0 0 0 496.068 -76.1834 -168732 8.53483 42.9857 -39.8079 -10403.9 3184.62 3882.04 0.05 
13215 1 -0.22749 -0.101076 4.27897 0 0 0 -0.415757 615.338 -169069 0 0.471476 -39.8079 56.5582 22216.6 -6775.57 0.05 
7183 1 -0.750531 -0.360017 4.35879 0 0 0 -0.775491 310.248 -166448 0 87.0491 -39.8079 -12783.2 -9045.73 -4366.71 0.05 
4371 1 -1.71273 0.39741 4.34081 0 0 0 0.978136 -152.086 -167037 -0.173175 -168.081 -39.8079 17513.9 -2599.57 17.1685 0.05 
11397 1 -0.430414 0.754596 4.35076 0 0 0 0.381765 52.8565 -166689 0 -1.514e+06 -39.8079 9019.46 16450.5 -5556.43 0.05 
13017 1 -1.48729 -0.792012 4.46483 0 0 0 0.909248 584.101 -163153 -0.114107 7.91959e+06 -39.8079 -24189.3 -7438.98 3021.17 0.05 
12202 1 -1.69792 -0.492896 4.42889 0 0 0 179.822 82.5018 -164076 -0.168272 1022.32 -39.8079 9591.61 11592.2 3632.57 0.05 
10576 1 -3.26861 0.234691 4.42974 0 0 0 288.582 -171.664 -164748 1739.75 -9.81044 -39.8079 -34639.3 13625.1 1203.32 0.05 
8448 1 -0.483475 -0.798029 4.56701 0 0 0 0.508839 353.049 -159922 0 1.06221e+07 -39.8079 -5624.8 -12451.1 599.922 0.05 
11202 1 -0.849544 0.251784 4.59419 0 0 0 123.447 238.648 -159224 0 -13.3455 -39.8079 -9912.06 27218.7 2176.75 0.05 
13635 1 -1.11897 0.675103 4.57919 0 0 0 1.12983 -248.954 -159669 0 -91294.8 -39.8079 23219.4 1106.72 3265.97 0.05 
11049 1 -2.64839 -0.218503 4.64211 0 0 0 133.741 -5.57849 -157302 -1.58115 7.27406 -39.8079 18.8217 -15907.8 3665.63 0.05 
9405 1 -1.49337 0.137323 4.65034 0 0 0 152.075 67.4589 -157450 -0.115336 -1.30155 -39.8079 -6349.9 -4238.04 -3403.14 0.05 
12319 1 -0.0529342 0.161305 4.65308 0 0 0 -0.207636 85.6351 -158386 0 -2.28574 -39.8079 -4133.99 98548.8 -3973.59 0.05 
11924 1 -1.4842 -0.304284 4.70118 0 0 0 0.042537 132709 -156145 -0.113487 33.3184 -39.8079 -713.479 -4098.91 8296.87 0.05 
13254 1 -1.96443 0.529344 4.70158 0 0 0 -0.150737 27.6407 -155765 -0.291485 -2189.18 -39.8079 -7367.64 -23625.4 3565.41 0.05 
12761 1 -0.541564 0.529358 4.68866 0 0 0 0.273628 -327.092 -156298 0 -2189.85 -39.8079 16792.2 -12762.6 -880.602 0.05 
11242 1 -1.16453 0.578063 4.73606 0 0 0 -0.0422323 -200.719 -155175 0 -6615.61 -39.8079 11388 -13157.8 4496.39 0.05 
8681 1 -0.510987 0.819779 4.77102 0 0 0 -0.925695 -781.188 -153783 0 -3.31962e+07 -39.8079 -50699.1 11980.1 1235.89 0.05 
12566 1 -1.89839 0.271977 4.79151 0 0 0 77.5525 -317.074 -153211 -0.252692 -19.0485 -39.8079 -16700 2013.15 5382.68 0.05 
12900 1 -3.48719 0.799799 4.79575 0 0 0 311.009 -530.89 -151839 762926 -1.15997e+07 -39.8079 -23920.6 40304.7 -3110.64 0.05 
4032 1 -1.64334 0.245275 4.9315 0 0 0 0.993796 310.862 -148998 -0.151617 -11.8796 -39.8079 9126.22 20299.1 3259.07 0.05 
10609 1 -1.77684 -0.321796 4.9737 0 0 0 1.51252 -165.219 -147349 -0.196572 45.0165 -39.8079 27672.1 -1753.56 3676.46 0.05 
12455 1 -2.35563 -0.307732 4.93505 0 0 0 1.67213 168.304 -148866 -0.750415 35.3535 -39.8079 7925.15 12355.5 -4376.61 0.05 
7677 1 -1.36622 0.536345 4.9375 0 0 0 -0.253297 -136.762 -149126 -0.0927063 -2549.15 -39.8079 -7104.88 7447.28 662.835 0.05 
11415 1 -0.876521 0.820937 4.95419 0 0 0 238.893 -937.294 -148344 0 -3.5406e+07 -39.8079 -96357.5 -10605.3 1405.99 0.05 
8255 1 -3.29259 -0.428425 4.99768 0 0 0 175.978 68.4655 -146740 2924.44 295.021 -39.8079 -29492.7 -11449 4606.84 0.05 
9373 1 -2.8185 0.916151 9.79643 0 0 0 399.44 106407 -2828.41 -1.54484 -6.98536e+10 -9.81675e+06 -23037 3186.08 -13607.7 0.05 
13781 1 -2.52466 -0.000980723 5.08353 0 0 0 31.3856 1.24119 -144580 -1.17347 3.84861e-07 -39.8079 5489.15 -18032.1 -657.816 0.05 
6492 1 -1.69751 0.757412 5.1123 0 0 0 110.525 -199.154 -142339 -0.168139 -1.69926e+06 -39.8079 16696.9 -12891.1 2389.16 0.05 
9165 1 -2.43645 -0.769189 5.17222 0 0 0 69.1415 60.3467 -141097 -0.929239 2.79551e+06 -39.8079 -44682.4 13410.2 -3042.24 0.05 
12363 1 -3.1498 -0.413896 5.14824 0 0 0 355.596 239.597 -142172 174.677 226.151 -39.8079 8225.56 -3555.31 5490.18 0.05 
6487 1 -3.3566 -0.324455 5.16947 0 0 0 396.83 223.839 -141599 13388.8 47.1214 -39.8079 12836.7 -22377.9 -7704.65 0.05 
7639 1 -0.954669 -0.192331 5.15133 0 0 0 -1.0914 165.7 -141912 0 4.38662 -39.8079 15457.6 21674 1082.4 0.05 
10766 1 -2.77523 0.0214648 5.2444 0 0 0 274.323 -645.343 -139270 -1.77349 -0.0040554 -39.8079 -41199.7 -4787.51 941.861 0.05 
13278 1 -2.04345 0.808272 5.20528 0 0 0 147.39 -1180.94 -140221 -0.347981 -1.78764e+07 -39.8079 -69159.6 7820.31 8625.9 0.05 
3777 1 -2.73855 -0.647858 5.28317 0 0 0 477.102 -46658.1 -137498 -1.79558 40731.8 -39.8079 2511.96 -4716.12 -2155.11 0.05 
11852 1 -2.18444 -0.537414 5.24784 0 0 0 209.781 264.786 -138928 -0.485826 2609.59 -39.8079 11897.3 19456.2 984.161 0.05 
11713 1 -2.1527 -0.253246 5.29575 0 0 0 187.819 -811.193 -137639 -0.449766 13.6971 -39.8079 12852.1 -8865.71 6541.5 0.05 
12207 1 -0.638596 0.343662 5.26044 0 0 0 -0.261889 -17318 -139063 0 -65.584 -39.8079 -20262.1 -18969.9 601.985 0.05 
9454 1 -2.4671 -0.121011 5.29861 0 0 0 23.8613 148.175 -137789 -1.00815 0.849788 -39.8079 8704.99 5585.32 2765.96 0.05 
3037 1 -0.655873 0.0306806 5.37266 0 0 0 51.9572 -3.79083 -135437 0 -0.011905 -39.8079 -3964.81 -4136.05 3439.81 0.05 
9289 1 -0.142847 0.31837 5.39099 0 0 0 1.1644 -131.287 -134108 0 -42.444 -39.8079 -3624.17 -6460.88 4435.75 0.05 
10622 1 -2.53103 -0.515514 5.43543 0 0 0 149.526 3.09353 -132670 -1.19311 1630.2 -39.8079 -19546.9 30099.5 -1973.68 0.05 
9291 1 -0.582911 -0.16415 5.46738 0 0 0 0.867404 -55.9492 -132285 0 2.43404 -39.8079 9808.39 -21308.2 -682.456 0.05 
8417 1 -2.52962 -0.573471 5.53594 0 0 0 9.37303 66461.2 -129879 -1.18874 5931.2 -39.8079 7807.19 -6700.52 1209.71 0.05 
1298 1 -2.31974 -0.553564 5.52705 0 0 0 79.3297 274.921 -130642 -0.683398 3740.84 -39.8079 5833.24 8835.42 -5717.94 0.05 
6601 1 -3.06677 -0.240239 5.52532 0 0 0 222.059 156.804 -130485 40.3695 10.8496 -39.8079 1511.83 7088.19 3380.35 0.05 
11208 1 -0.922924 0.317341 5.63469 0 0 0 -0.489781 -313.998 -127289 0 -41.7004 -39.8079 -18203.6 16205.6 -2992.52 0.05 
10028 1 -3.4457 0.695117 5.62179 0 0 0 386.709 -271.557 -126502 175895 -172573 -39.8079 44558.4 21410.1 2807.04 0.05 
11214 1 -1.9089 0.810294 5.664 0 0 0 194.512 -954.61 -125393 -0.258422 -1.98753e+07 -39.8079 -70915.1 587.244 -4847.1 0.05 
206 1 -2.29095 -0.760663 5.75603 0 0 0 83.4541 66.9175 -122356 -0.634527 1.94485e+06 -39.8079 -18401.5 -18084.4 1061.65 0.05 
2112 1 -1.37431 -0.396953 5.71891 0 0 0 111.049 -54.5444 -124158 -0.0939708 166.718 -39.8079 1233.91 1872.77 1305.06 0.05 
13478 1 -2.79013 0.407817 5.79571 0 0 0 449.637 -45.6359 -121456 -1.72662 -202.598 -39.8079 -10129.5 -26863.5 2476.92 0.05 
4730 1 -2.34923 0.571619 5.80916 0 0 0 334.723 -235.06 -121644 -0.737943 -5677.44 -39.8079 20948.1 -7961.38 -4366.16 0.05 
8660 1 -2.89772 -0.781144 5.83832 0 0 0 534.999 443.684 -119849 0.248347 4.75861e+06 -39.8079 14477.5 -14760.4 -8301.81 0.05 
12559 1 -2.57088 -0.772259 5.84978 0 0 0 32464 42.5817 -119774 -1.32098 3.19615e+06 -39.8079 -43723.8 -25383.5 -13862.8 0.05 
9911 1 -2.30426 -0.191547 5.82928 0 0 0 90.3066 -152.24 -121287 -0.656608 4.31839 -39.8079 -9458.35 6156.14 792.257 0.05 
4350 1 -1.93965 -0.594448 5.914 0 0 0 93.4383 630.472 -117650 -0.276125 9860.1 -39.8079 -12400.1 -42919.9 4136.68 0.05 
13047 1 -1.47141 -0.504692 5.89431 0 0 0 2.72496 121.489 -118930 -0.110971 1301.01 -39.8079 -5261.26 -2525.86 1985.84 0.05 
7680 1 -0.230753 0.660142 5.91474 0 0 0 -0.0890154 3.42419 -117826 0 -58148.3 -39.8079 -7670.81 -7350.76 -6526.56 0.05 
3659 1 -1.15944 -0.610434 5.93355 0 0 0 5.16334 430.729 -117801 0 14776.4 -39.8079 2733.13 11103 -565.496 0.05 
9947 1 -0.484496 -0.207654 5.92522 0 0 0 0.987894 -342.507 -117774 0 5.92086 -39.8079 -10103.5 12433.8 10082.9 0.05 
12040 1 -3.19218 0.0938706 6.01901 0 0 0 471.713 -356.738 -114849 380.362 -0.371837 -39.8079 15089.1 17082 -86.3417 0.05 
11268 1 -1.93232 -0.197877 6.04659 0 0 0 1.76208 -81.2142 -114222 -0.271773 4.89638 -39.8079 29864.8 -3618.73 -685.673 0.05 
7591 1 -0.677 0.715149 6.06741 0 0 0 -0.00815119 68.283 -113236 0 -340742 -39.8079 14341 -7770.88 7549.9 0.05 
12192 1 -0.206442 0.179772 6.11239 0 0 0 2.37786 -93.6073 -112466 0 -3.39714 -39.8079 19408.4 -524.192 3250.39 0.05 
13500 1 -0.507371 0.677375 6.13943 0 0 0 1.06112 -118915 -111014 0 -97942.8 -39.8079 38161.3 9002.19 3337.92 0.05 
9169 1 -1.88551 -0.368643 6.21239 0 0 0 34.9853 72468.5 -109754 -0.245882 101.164 -39.8079 18361.9 -32131.1 19347.1 0.05 
8359 1 -2.18588 0.0568728 6.19216 0 0 0 77.7597 -401.521 -109586 -0.487541 -0.0777653 -39.8079 -5819.2 -7486.86 -11905.4 0.05 
10939 1 -2.73967 0.641178 6.19293 0 0 0 188.799 39.8753 -108479 -1.79637 -33734.5 -39.8079 3906.56 21481.6 603.853 0.05 
13249 1 -1.23634 -0.75302 6.22705 0 0 0 199.43 542.985 -107671 0 1.42011e+06 -39.8079 -27288.1 23601.4 -625.568 0.05 
8437 1 -3.41851 0.369779 6.22937 0 0 0 585.06 38137.3 -108235 74649.4 -103.192 -39.8079 19327.7 -34445.8 -4832.02 0.05 
13159 1 -3.55843 0.488124 6.23399 0 0 0 888.378 -477.739 -107355 1.80267e+07 -928.59 -39.8079 -17199.1 -37408.3 -2407.07 0.05 
12032 1 -2.87809 -0.334124 6.32128 0 0 0 290.307 -84.2954 -104733 -0.465129 55.6439 -39.8079 4790.94 -28224.8 3147.42 0.05 
12315 1 -3.41985 0.441886 6.32896 0 0 0 198.469 122.554 -105651 77743.4 -378.962 -39.8079 29274.3 -39488.5 7802.64 0.05 
13964 1 -0.207474 -0.240046 6.33477 0 0 0 -1.73267 -435.101 -104936 0 10.8119 -39.8079 -4294.31 -12211.4 -775.338 0.05 
6590 1 -3.56052 -0.13191 6.33177 0 0 0 713.335 131.805 -105312 2.01174e+07 1.135 -39.8079 6267.37 -36918.6 8012.27 0.05 
9303 1 -0.349092 -0.120228 6.33219 0 0 0 0.589332 122.437 -105137 0 0.831656 -39.8079 -13928.1 -5148.38 933.195 0.05 
1859 1 -2.7 0.26438 6.33837 0 0 0 110.629 -566.061 -104579 -1.7314 -16.6752 -39.8079 -5784.6 4348.33 5790.38 0.05 
6890 1 -2.1678 0.312265 6.37875 0 0 0 130.388 247.473 -103525 -0.466509 -38.218 -39.8079 2141.05 14005.6 -3014.62 0.05 
4674 1 -1.60038 0.565534 6.36652 0 0 0 169.282 83.8385 -103803 -0.13993 -4923.76 -39.8079 24967.3 -9431.76 9902.63 0.05 
271 1 -3.47414 -0.160588 6.40046 0 0 0 266.325 194.947 -103281 469693 2.24957 -39.8079 -6456.94 40297.8 -4579.49 0.05 
13236 1 -3.13909 0.0257282 6.39662 0 0 0 271.394 -26401 -102743 144.193 -0.006999 -39.8079 1781.1 -1637.86 4576.29 0.05 
11483 1 -1.8884 -0.74239 6.449 0 0 0 4.93022 4886.66 -101314 -0.247392 931624 -39.8079 65648.3 -5559.14 -2364.46 0.05 
7042 1 -1.69094 0.485098 6.48284 0 0 0 223.827 -12654.7 -100089 -0.16602 -873.998 -39.8079 -34206.3 -5516.62 3736.18 0.05 
13162 1 -0.414044 0.0420656 6.51561 0 0 0 109.41 261.21 -98328.8 0 -0.0309646 -39.8079 336.558 -9142.93 2716.89 0.05 
10345 1 -3.09195 -0.729285 6.58413 0 0 0 128.2 5019.14 -96029.9 62.818 567053 -39.8079 52479.7 4063.3 -1435.06 0.05 
3372 1 -1.59226 -0.0177057 6.55037 0 0 0 4.82462 104.867 -98057.9 -0.137849 0.00227245 -39.8079 -23909.3 -10681.9 -2635.59 0.05 
8516 1 -0.701545 0.266242 6.56604 0 0 0 1.42313 -60.5683 -97581.6 0 -17.2292 -39.8079 2073.26 9071.94 8287.91 0.05 
3963 1 -0.262184 0.567121 6.56022 0 0 0 2.44269 221.958 -97608.4 0 -5109.26 -39.8079 -5048.29 -19173.1 -6525.2 0.05 
10960 1 -1.21874 0.793497 6.56442 0 0 0 595.398 -3058.68 -97761.7 0 -8.50808e+06 -39.8079 -90095.7 -10669.7 9763.8 0.05 
13505 1 -0.16404 -0.436992 6.62553 0 0 0 153.17 69735 -96226 0 345.818 -39.8079 23766.4 5473.26 -5383.39 0.05 
13612 1 -1.51852 -0.177565 6.62386 0 0 0 62.0346 -322.345 -95748.3 -0.120598 3.2445 -39.8079 -15597.4 371.408 3250.97 0.05 
4198 1 -1.48568 -0.0454095 6.61243 0 0 0 89.7897 67.2626 -96374.1 -0.113784 0.0390768 -39.8079 -21743.3 -3519.48 1061.91 0.05 
11890 1 -2.84354 0.13939 6.61103 0 0 0 451.004 -143.809 -96205.9 -1.23943 -1.36992 -39.8079 22358.7 -25560.3 3189.61 0.05 
10867 1 -3.07103 0.794408 6.61716 0 0 0 400.747 -480.395 -95278.5 43.5181 -8.89298e+06 -39.8079 -14545.6 26999.2 991.261 0.05 
13274 1 -1.34335 -0.796842 6.66083 0 0 0 153.741 196.354 -94381.9 -0.0892429 1.00175e+07 -39.8079 2351.61 -12550.2 -462.172 0.05 
9422 1 -1.45431 0.433845 6.6801 0 0 0 145.633 -279.522 -93780.3 -0.107717 -326.15 -39.8079 5125.03 2882.75 6268.6 0.05 
4108 1 -0.716761 -0.614917 6.74143 0 0 0 8.49039 343.113 -91544.4 0 16599.4 -39.8079 23231 11283.8 -603.078 0.05 
12344 1 -0.104791 -0.228585 6.70091 0 0 0 -0.974427 -381.27 -92491.4 0 8.77241 -39.8079 -1449.49 -3011.39 12858.7 0.05 
12661 1 -3.53904 0.282212 6.69978 0 0 0 610.626 -45.1973 -93168.8 6.87056e+06 -22.7621 -39.8079 15991.1 -5875.18 -3027.09 0.05 
10294 1 -1.68157 -0.714488 6.78535 0 0 0 8.9747 -85.7588 -90196.4 -0.163055 332923 -39.8079 15261.7 -5016.74 -2015.43 0.05 
7105 1 -1.48525 -0.375253 6.77722 0 0 0 154.374 -258.265 -90828.2 -0.113698 113.572 -39.8079 15953.6 -388.134 9770.12 0.05 
11228 1 -0.853833 0.67477 6.74839 0 0 0 212.248 -292.117 -91138.1 0 -90362.3 -39.8079 26710.5 22515 882.167 0.05 
10394 1 -1.98061 -0.80683 6.80178 0 0 0 455.702 886.589 -89839.8 -0.302084 1.65854e+07 -39.8079 48274.2 4032.71 470.026 0.05 
6232 1 -3.38558 -0.59118 6.81622 0 0 0 597.993 593.136 -89029.1 28877.9 9094.48 -39.8079 -27584.8 35113.1 -8282.62 0.05 
11247 1 -2.37165 -0.0786047 6.82182 0 0 0 281.584 -280.537 -89138.6 -0.782678 0.212075 -39.8079 20176.5 16917.6 2779.55 0.05 
3780 1 -0.87478 -0.0767357 6.79812 0 0 0 214.749 -236.551 -90065.6 0 0.196673 -39.8079 10985.2 15940 -3369.77 0.05 
8380 1 -0.566605 -0.684803 6.86365 0 0 0 156.055 461.817 -88010.4 0 123678 -39.8079 -75.1218 -1963.71 6907.18 0.05 
11812 1 -2.01869 -0.410511 6.8996 0 0 0 8.26129 65.9609 -86739.4 -0.328943 212.698 -39.8079 -10600.1 -24162.6 9882.96 0.05 
13755 1 -0.903063 -0.280187 6.93424 0 0 0 3.27174 473.515 -85614.3 -4.35882e+06 -1.3828e+07 4.87288e+08 -25463.6 30521 -6312.11 0.05 
9416 1 -3.5607 0.0584555 6.94984 0 0 0 842.998 -10.2479 -85274.4 5.74083e+07 -1.06455e+07 3.63248e+08 -16794.2 -55881.7 4444.86 0.05 
4329 1 -2.28612 0.242833 6.93726 0 0 0 436.396 -111.317 -84885.3 -0.626727 -11.3694 -39.8079 -2387.67 -15375.5 689.759 0.05 
1210 1 -0.287027 0.251261 6.91359 0 0 0 0.254153 226.035 -86541 0 -13.2218 -39.8079 28407.2 -2975.74 -16011.4 0.05 
11916 1 -1.86301 0.438074 6.93626 0 0 0 70.8084 -59.1582 -85731.7 -0.234519 -352.869 -39.8079 21488.1 5883.66 -749.099 0.05 
11567 1 -2.34727 0.664724 6.91625 0 0 0 176.814 -583.237 -85965.3 -0.734169 -66622.2 -39.8079 1786.99 -21168.7 -7103.01 0.05 
10082 1 -0.0747209 -0.908099 7.00162 0 0 0 1.58325 54924.7 -27.1792 0 2.79233e+10 -39.8079 -61978.8 -1191.29 -35479.9 0.05 
14013 1 -3.30284 -0.822709 7.00185 0 0 0 2.23217 1557.92 0.633651 1.56952e+06 3.23299e+07 522377 -895.29 4.91006 3615.7 0.05 
196 1 -3.09803 -0.816483 7.01019 0 0 0 0.291191 1994.02 -169.428 95991.1 2.19133e+07 21344.5 -11431.9 465.173 2059.55 0.05 
12327 1 -1.10087 -0.816409 7.00053 0 0 0 0.601625 700.788 1.14357 666089 2.51085e+07 411395 -5607.56 49.4387 3923.04 0.05 
6695 1 -0.781352 -0.82057 7.00085 0 0 0 -0.158495 1006.91 -1.94116 0 3.46897e+07 -39.8079 -1105.73 -1.7622 291.429 0.05 
13221 1 -0.46027 -0.822928 6.99801 0 0 0 1.18978 994.295 -269.468 269594 3.24123e+07 1.50058e+06 -9314.8 -3263.33 -602.94 0.05 
9943 1 -2.9304 -0.765424 7.00983 0 0 0 139.708 515.776 -560.821 -3.96236e+06 1.47903e+07 -1.33182e+06 -705.159 12580.2 -1748.55 0.05 
13855 1 -1.76211 -0.755321 7.00259 0 0 0 38.5594 280.89 -77.9432 -403823 4.87885e+06 1.51433e+06 -3205.78 3742.09 -5615.35 0.05 
12243 1 -0.703792 -0.74953 7.00116 0 0 0 72.871 301.975 0.138423 0 1.23412e+06 -39.8079 -5547.34 337.431 -7846.79 0.05 
11028 1 -0.585258 -0.765012 7.00029 0 0 0 -0.0362035 243.943 -155.823 1.31402e+06 3.08045e+07 -4.64076e+08 -8460.62 981.291 4982.98 0.05 
5466 1 -0.115576 -0.78162 7.00587 0 0 0 -0.699464 199.495 -133.422 0 4.8633e+06 -39.8079 -10982.4 -3202.56 -9449.25 0.05 
13426 1 -3.2843 -0.733566 7.0083 0 0 0 230.425 177.919 0.397171 -1.43298e+06 7.27188e+06 -490371 -1181.7 3586.5 -42.6978 0.05 
9896 1 -3.06519 -0.702506 7.00939 0 0 0 310.488 215.534 -235.093 39.2607 220623 -39.8079 -559.755 -954.382 -3468.77 0.05 
11386 1 -2.48032 -0.716224 7.00577 0 0 0 283.658 260.525 -189.377 -1.04415 353887 -39.8079 1642.02 7663.69 -797.809 0.05 
11448 1 -3.35101 -0.659168 7.00514 0 0 0 340.183 11.6301 -159.237 -271351 2.38074e+07 -281597 -5349.36 -2003.17 102.49 0.05 
9043 1 -2.27615 -0.662272 7.00113 0 0 0 336.617 0.635378 -4.94757 -0.610978 61930.1 -39.8079 234.082 1460.24 -132.83 0.05 
9387 1 -1.88418 -0.633885 7.00004 0 0 0 362.481 404.649 -204.09 657474 3.98862e+07 1.20791e+06 -10131.7 -3099.24 4819.61 0.05 
13214 1 -1.70121 -0.640283 7.0078 0 0 0 338.397 265.112 -157.019 -40175 264659 -178956 1732.11 2165.46 6028.75 0.05 
13012 1 -1.0547 -0.638147 6.96962 0 0 0 393.273 185.669 -84827.3 1.5585e+07 -1.08842e+07 5.19978e+08 22197.2 -5827.57 -858.112 0.05 
13698 1 -0.544288 -0.634243 7.00039 0 0 0 359.938 274.545 -238.493 -1.08632e+06 4.94353e+07 2.44827e+06 1119.07 -95.4481 2721.51 0.05 
3890 1 -3.45392 -0.604563 7.00396 0 0 0 444.949 1.89758 -183.16 231416 12713.2 -39.8079 -1069.1 10032.3 850.346 0.05 
14036 1 -2.37151 -0.627117 7.00027 0 0 0 394.27 174.686 -77.2312 -0.782387 22936.6 -39.8079 -5492.48 5111.42 -5038.93 0.05 
13329 1 -1.32795 -0.594578 7.00407 0 0 0 430.604 256.343 -0.00467252 -0.0870021 9891.9 -39.8079 -1941.81 4204.42 -4716.37 0.05 
5912 1 -0.355241 -0.598274 7.0015 0 0 0 424.27 404.865 0.085654 0 10847 -39.8079 -7199.26 4451.28 2980.28 0.05 
11316 1 -2.81095 -0.55744 7.00165 0 0 0 287.696 210.019 -3.93188 -1.60743 4085.8 -39.8079 -3944.5 4585.05 -5793.04 0.05 
11479 1 -2.4577 -0.534616 7.00221 0 0 0 300.02 220.128 -309.708 1.23468e+06 146108 -107134 -3221.79 -6370.79 6503.39 0.05 
7434 1 -1.82342 -0.561739 7.00838 0 0 0 25.4534 10358.2 -23.0687 3.05672e+06 2.63167e+08 -3.90293e+08 5669.69 655.348 559.847 0.05 
12594 1 -0.813512 -0.548898 7.00679 0 0 0 302.413 284.436 -2.22129 302427 -270013 -439528 -114.442 4241.39 4666.2 0.05 
10556 1 -0.708279 -0.539665 7.00931 0 0 0 307.779 342.376 -155.425 -737783 -612392 1.43478e+06 800.859 3125.99 -3362.93 0.05 
9307 1 -0.259112 -0.532626 7.00188 0 0 0 290.852 386.392 1.05983 0 2350.53 -39.8079 143.092 4711.92 1008.81 0.05 
12205 1 -3.11976 -0.503423 7.00351 0 0 0 227.963 80.5929 -78.2147 -556356 -148566 -922796 -4912.13 2279.03 4648.07 0.05 
7966 1 -2.02136 -0.518767 7.00054 0 0 0 271.21 261.385 -1.14497 -0.330937 1746.09 -39.8079 -5905.43 4623.78 3846.23 0.05 
10984 1 -1.50236 -0.505657 7.00016 0 0 0 246.49 24.4976 -391.788 -375125 340695 123975 -223.752 4299.45 4525.59 0.05 
13525 1 -1.37142 -0.489805 7.00902 0 0 0 217.509 324.719 -54.6181 -1.10027e+06 -499553 -311511 -3500.74 1945.78 4147.62 0.05 
5517 1 -3.42778 -0.433805 6.99996 0 0 0 6964.98 -2.93436 -1.33201 -2.76328e+07 547286 -38168.3 27.9892 -5270.09 4705.41 0.05 
6295 1 -3.22258 -0.471962 7.00665 0 0 0 127.906 322.45 -202.087 1.48894e+06 6.06803e+07 1.56737e+06 -7444.22 412.176 5915.62 0.05 
13644 1 -2.15755 -0.467691 7.00003 0 0 0 110.888 0.565895 -157.235 -0.455069 620.222 -39.8079 5712.16 -318.792 4093.59 0.05 
7418 1 -1.68383 -0.449494 6.9976 0 0 0 0.890269 278.433 -264.707 -0.163764 437.403 -39.8079 181.889 -2164.34 1394.11 0.05 
3483 1 -0.638996 -0.470993 7.00939 0 0 0 132.2 131.83 -2.68528 737783 615795 -1.43486e+06 -4450.56 1652.26 2244.79 0.05 
6072 1 -3.06717 -0.415536 7.00535 0 0 0 1.00465 203.688 -100.422 463023 78969 44986.6 -5812.32 -4318.61 2207.12 0.05 
11339 1 -2.07379 -0.371577 7.00456 0 0 0 2.59838 191.322 -312.221 -0.373171 106.489 -39.8079 -1529.45 677.272 4907.22 0.05 
12492 1 -1.42302 -0.402623 7.00682 0 0 0 0.290928 283.972 -444.797 -0.10206 184.525 -39.8079 -5414.35 134.491 4899.75 0.05 
2539 1 -1.1615 -0.407864 7.0089 0 0 0 0.326036 4.68205 -0.0731512 3.50732e+06 5.03802e+07 -813295 -44.1432 0.858545 -142.441 0.05 
6261 1 -0.775937 -0.371696 6.99672 0 0 0 0.281684 336.86 -308.997 0 106.711 -39.8079 -2696.97 3748.79 -391.03 0.05 
11157 1 -0.354936 -0.410774 7.00165 0 0 0 -0.363799 253.589 -0.0298555 0 213.713 -39.8079 -2619.93 -3.18921 5536.32 0.05 
12860 1 -0.240016 -0.407452 7.00328 0 0 0 2.26721 320.391 -0.191023 4.81816e+06 9.73258e+07 -1.76067e+06 1729.79 16.4512 -1536.74 0.05 
3298 1 -2.40074 -0.350304 7.00551 0 0 0 65.2207 251.122 -207.485 -0.845169 73.5587 -39.8079 -7407.33 4969.75 -8391.18 0.05 
13080 1 -1.6292 -0.325769 7.00379 0 0 0 197.143 174.826 -0.755909 -0.147642 48.1975 -39.8079 -1215.14 1294.46 -11191.4 0.05 
11927 1 -1.26338 -0.327999 7.00106 0 0 0 190.333 0.46911 -2.48979 -0.0783331 50.0805 -39.8079 401.525 1441.54 -6199.21 0.05 
11626 1 -3.32895 -0.292569 7.00901 0 0 0 303.053 -0.212891 -265.272 6757.65 27.2287 -39.8079 4436.21 -2902.13 -4277.21 0.05 
246 1 -1.97541 -0.306162 7.00776 0 0 0 260.68 227.106 -0.510873 -0.29863 34.4121 -39.8079 -4401.5 1334.13 -10537.5 0.05 
13413 1 -0.751353 -0.271888 7.00811 0 0 0 2.23704 314.182 -73.4432 370678 1.21968e+06 -56506.8 3132.18 79.9808 -3975.41 0.05 
13443 1 -2.62304 -0.234156 7.004 0 0 0 313.393 306.637 -303.102 -1.49672 9.71527 -39.8079 -9285.9 -1777.63 1566.2 0.05 
4622 1 -1.82012 -0.213195 7.01013 0 0 0 247.524 -333.481 -1.49578 -0.214598 6.58114 -39.8079 1618.76 921.204 5554.22 0.05 
11055 1 -1.58551 -0.223381 7.00898 0 0 0 284.437 77.1732 -126 -0.136146 7.96758 -39.8079 -3994.61 5233.94 1669.15 0.05 
9031 1 -1.07492 -0.255655 7.00495 0 0 0 28.6322 89.7871 -0.184849 4.18114e+08 9.14678e+08 -3.25502e+06 -654.532 207.483 1495.68 0.05 
8291 1 -0.433877 -0.221236 7.00969 0 0 0 0.427325 -44.5696 -242.264 0 7.65556 -39.8079 -1642.04 -5952.09 2099.96 0.05 
10863 1 -3.50366 -0.176233 7.00363 0 0 0 4463.98 -6.19422 -474.293 -2.94494e+07 -1.84862e+06 -969918 -6562.76 531.489 5769.31 0.05 
11894 1 -3.17304 -0.176248 7.00154 0 0 0 96.4534 5.94079 -3.52088 151797 1.58651e+06 -992301 -130.931 648.054 3911.75 0.05 
1680 1 -1.26708 -0.192544 7.00808 0 0 0 201.477 76184.9 -241.103 6.9221e+06 -7.61124e+08 -865903 -31779.1 4228.29 -12346.1 0.05 
7242 1 -1.01375 -0.157907 7.00575 0 0 0 0.575333 0.37995 -184.543 0 2.11834 -39.8079 3269.03 5355.09 3.02773 0.05 
12122 1 -0.561737 -0.186832 6.99712 0 0 0 -0.486486 -280.04 -438.813 0 3.92686 -39.8079 1571.51 2273.6 -4490.38 0.05 
13658 1 -0.159218 -0.167099 6.99811 0 0 0 -0.150316 -114.755 -340.761 61660.1 41338.2 -61599.1 5127.11 -2453.76 -4775.23 0.05 
12127 1 -2.82774 -0.110351 7.0061 0 0 0 0.149019 -17.5509 -51.8905 -1.45121 0.627003 -39.8079 -1219.28 2152.68 -731.6 0.05 
12444 1 -0.778874 -0.116767 7.00677 0 0 0 5.8248 133742 -164.718 -1.86194e+07 -7.26873e+08 -3.02833e+07 24026.4 -2189.82 -18572.8 0.05 
6839 1 -2.93578 -0.0589619 7.00059 0 0 0 91.1857 -7.34026 -0.645208 2.54432 0.086884 -39.8079 -34.7173 3569.02 -2026.01 0.05 
9952 1 -1.27475 -0.0743877 7.0053 0 0 0 83.8854 -335.815 -0.280704 -0.0797787 0.178468 -39.8079 779.265 3131.86 -3371.85 0.05 
13065 1 -0.446594 -0.071302 7.00083 0 0 0 56.1347 -263.29 -4.82662 2.57984e+06 -2.00673e+08 734956 3366.09 2348.09 1019.06 0.05 
11753 1 -2.68295 -0.00737608 7.004 0 0 0 155.601 268.445 -134.171 -1.12395e+06 -1.64643e+08 -5.21018e+06 1334.34 1678.68 294.394 0.05 
13038 1 -2.38292 -0.0445494 7.00964 0 0 0 163.767 103.919 -293.285 -2.64526e+06 -1.4723e+08 3.20024e+06 4917.32 7011.92 -5012.67 0.05 
9721 1 -2.21236 -0.0450041 7.00071 0 0 0 123.04 -81.2094 0.109618 -0.520427 0.0380243 -39.8079 1015.05 4811.97 -4938.27 0.05 
11177 1 -1.65799 -0.0162658 7.00095 0 0 0 141.718 261.057 -198.927 -1.08663e+06 -427737 -164909 -4003.11 11883.5 -1669.36 0.05 
10773 1 -0.272949 -0.0408239 7.00051 0 0 0 126.001 218.709 -136.875 0 0.0282708 -39.8079 4214.1 7977.33 -7016.14 0.05 
9438 1 -3.49558 0.0217793 7.00368 0 0 0 4703.29 -63.1575 -157.775 -1.03423e+08 1.05573e+07 -3.62998e+08 -795.878 -4958.57 -820.328 0.05 
1157 1 -1.05261 0.0220065 7.00782 0 0 0 115.779 0.284654 -0.332915 0 -0.00437137 -39.8079 -34.9352 4161.11 2477.71 0.05 
2032 1 -0.422476 0.0489414 6.99949 0 0 0 1.15672 -302.125 -333.327 0 -0.0491018 -39.8079 5672.86 1259.79 -199.496 0.05 
5587 1 -2.27444 0.058251 7.00815 0 0 0 49.1615 0.161683 -94.3528 -0.608318 -0.0837026 -39.8079 -74.9332 5912.01 -1512.14 0.05 
4228 1 -2.03777 0.0883227 7.00415 0 0 0 119.611 -87.8968 -1.67865 -0.343494 -0.306289 -39.8079 1024.1 4523.61 4066.53 0.05 
5683 1 -1.90242 0.056862 7.00453 0 0 0 27.2777 -107.858 -0.416203 1.01047e+06 -102059 17592.1 846.498 978.923 -5171.31 0.05 
9104 1 -0.713781 0.0637617 7.00947 0 0 0 91.1428 3.80802 -194.919 -281078 -73319.8 892539 3113.04 8651.02 -2685.42 0.05 
11421 1 -3.49821 0.154374 7.00332 0 0 0 4608.57 23.7427 -144.026 -7.52396e+07 5.69149e+08 -5.08014e+08 -440.66 -1794.08 2674.9 0.05 
1592 1 -1.43825 0.119663 7.00652 0 0 0 175.404 187.122 -225.648 -0.104766 -0.818745 -39.8079 -2198.6 63.7717 3932.12 0.05 
8636 1 -0.448755 0.156459 7.00615 0 0 0 120.445 -413.901 -0.683924 0 -2.05005 -39.8079 4452.07 4363.29 3557.15 0.05 
3720 1 -0.321603 0.115988 7.00092 0 0 0 143.364 313.586 -1.43711 0 -0.738465 -39.8079 -3241.05 5521.36 1523.92 0.05 
11518 1 -3.24937 0.18478 7.00145 0 0 0 3.89331 -225.388 -229.923 1165.6 -3.76618 -39.8079 -2998.39 -2600.31 5901.16 0.05 
8568 1 -3.0218 0.187539 7.00797 0 0 0 1.94802 -311.359 -0.183403 17.9501 -3.98356 -39.8079 3638.85 36.8077 3548.09 0.05 
11832 1 -2.59854 0.186112 7.00211 0 0 0 4.56071 99.0722 -2.75076 -1.41369 -3.86984 -39.8079 -3087.6 77.6596 2571.15 0.05 
11037 1 -1.58243 0.169736 7.00136 0 0 0 73.8741 40.2106 -118.72 -0.135378 -2.74828 -39.8079 -1760.1 3769.79 26.9101 0.05 
5472 1 -1.06038 0.185043 7.00206 0 0 0 -0.480115 0.438002 -0.479901 0 -3.78646 -39.8079 -36.5086 0.40685 1.12942 0.05 
13760 1 -3.57349 0.253121 7.00006 0 0 0 1537.3 -135.315 -307.309 -2.17682e+06 5.35222e+08 -4.9802e+08 2875.66 7319.01 1293.76 0.05 
10467 1 -3.39082 0.224433 7.00623 0 0 0 19.8503 -84.6694 -0.525708 2.97296e+07 400925 -1.4605e+06 880.059 755.119 -3722.5 0.05 
3741 1 -1.25446 0.222581 7.0102 0 0 0 0.444528 -331.801 -0.221784 -0.0772224 -7.84989 -39.8079 -7.20369 -1.50365 1997.48 0.05 
13514 1 -0.206694 0.24848 7.00933 0 0 0 -0.268736 -109.382 -371.923 0 -12.5816 -39.8079 8674.87 -3883.3 1778.3 0.05 
6836 1 -0.737039 0.27511 7.00229 0 0 0 -0.336556 5.14092 -288.714 -604133 443276 -474459 1016.89 4851.4 -5.63971 0.05 
5181 1 -3.30993 0.343777 7.00141 0 0 0 340.182 -308.945 -1.13245 4325.28 -65.7142 -39.8079 3858.65 5791.69 -7304.2 0.05 
5457 1 -2.82893 0.322912 7.00447 0 0 0 219.112 0.624055 -65.9054 -1.43765 -45.888 -39.8079 -2818.02 6535.62 -4939.71 0.05 
4861 1 -2.72178 0.353074 7.0089 0 0 0 390.331 172.774 -189.603 -1.77548 -77.1713 -39.8079 3405.24 3024.8 -9268.54 0.05 
9264 1 -2.58669 0.318213 7.0101 0 0 0 196.722 51.7814 -6.40732 -66927.6 2.35039e+08 4.31788e+06 -1425.11 5266.03 -1915.44 0.05 
7879 1 -2.47096 0.352954 7.01009 0 0 0 379.979 -37.9498 -4.00913 -1.69749e+07 -4.95152e+08 -1.22598e+07 3477.94 5590.47 -6440.67 0.05 
13743 1 -2.13685 0.355242 6.99965 0 0 0 354.843 -305.044 -240.579 -0.432967 -80.1256 -39.8079 8948.85 2256.48 -7214.97 0.05 
12717 1 -1.96351 0.365719 7.00124 0 0 0 351.189 -114.678 -2.26068 2.38197e+08 -2.65019e+06 8.1287e+06 2703.07 4389.29 -1083.65 0.05 
5648 1 -1.35457 0.329249 7.00356 0 0 0 75.2011 -36.1225 -1.15128 -269104 655058 -55165.1 3920.25 -40.3391 -11476.8 0.05 
13166 1 -1.28448 0.420608 7.00241 0 0 0 68804.4 224.753 -197.571 -1.54045e+09 196581 -1.92128e+07 -1475.96 -73834.2 -31735.9 0.05 
11062 1 -0.77138 0.402344 7.00204 0 0 0 0.699002 3.07589 -0.887254 0 -183.603 -39.8079 -144.685 -1.31459 215.002 0.05 
12140 1 -0.470411 0.37758 7.0024 0 0 0 0.000543864 -290.737 -142.392 0 -118.308 -39.8079 10358.1 -2577.21 -2300.36 0.05 
12270 1 -0.206459 0.380029 7.00988 0 0 0 -0.264785 -105.306 -97.1214 0 -123.516 -39.8079 7066.34 3047.51 1720.32 0.05 
13282 1 -3.21952 0.442842 6.95448 0 0 0 371.485 -564.077 -84505.1 -1.28809e+07 9.35943e+06 4.51326e+08 20235.2 -44191.6 -11879.4 0.05 
4450 1 -3.09409 0.432539 7.00507 0 0 0 328.189 -386.421 -1.18492 -32684.1 -9.30213e+07 94549.5 3506.41 -8.39603 2001.18 0.05 
12193 1 -1.73419 0.470659 7.00969 0 0 0 55894.6 -12839.6 -302.961 -1.20558e+09 2.93376e+08 -1.06273e+07 -5466.78 -69437.8 -2525.52 0.05 
13401 1 -1.48982 0.443005 7.00434 0 0 0 312.966 -387.678 -422.11 -0.114616 -387.003 -39.8079 12578 5139.25 1399.98 0.05 
13997 1 -1.31717 0.4343 7.0015 0 0 0 229.541 -244.053 2.04842 5.30364e+08 -6.66498e+06 -8.95805e+06 4148.67 237.691 -6826.48 0.05 
12657 1 -1.2116 0.455819 7.00114 0 0 0 23.5272 -231.454 0.738212 3.93279e+08 1.06975e+07 1.26491e+07 981.503 47.7677 6677.23 0.05 
13330 1 -0.0551462 0.425091 7.00397 0 0 0 2.22431 -321.042 -1.54446 1.01814e+06 779807 -991166 -289.677 22.1299 3009.74 0.05 
12618 1 -3.57175 0.482485 6.99827 0 0 0 1304.65 -181.259 -329.264 3.09239e+07 1.45203e+06 -892797 4895.46 3093.57 2140.52 0.05 
2817 1 -2.63382 0.480707 7.00437 0 0 0 185.526 -106.406 -1.37681 -1.533 -800.852 -39.8079 4744.23 -166.413 4628.64 0.05 
10857 1 -2.38331 0.480321 7.00852 0 0 0 209.186 -147.15 -8.4469 -0.807115 -794.737 -39.8079 3322.7 -363.272 10506.9 0.05 
1235 1 -2.11642 0.522177 7.00689 0 0 0 290.122 -455.898 -4.37587 -0.412398 -1877.22 -39.8079 4511.19 763.935 -5946.09 0.05 
13078 1 -1.40158 0.509682 7.00012 0 0 0 87.1722 -16.5415 -338.818 -7.50494e+06 -4.31652e+08 -1.85378e+07 3809.74 2686.39 6191.57 0.05 
12409 1 -0.163607 0.480663 7.00725 0 0 0 -0.225329 -114.581 -1.76585 -412895 -5.75094e+07 -3.82423e+06 577.213 8.50818 -4167.82 0.05 
10883 1 -3.17121 0.530327 7.00854 0 0 0 9.84656 -314.954 -7.76863 257.682 -2236.24 -39.8079 2174.41 56.828 -3021.22 0.05 
3048 1 -3.04696 0.567476 7.00355 0 0 0 2.25767 -312.303 -0.304482 28.3994 -5151.68 -39.8079 3755.63 52.6541 108.242 0.05 
3352 1 -1.51552 0.550722 7.0065 0 0 0 -1.53125 -238.294 -102.196 -0.119956 -3508.09 -39.8079 3792.27 -4411.26 -4471.29 0.05 