ITEM: TIMESTEP
250000
ITEM: NUMBER OF ATOMS
14052
ITEM: BOX BOUNDS ff pp ff
-3.75 3.75
-1 1
0 10
ITEM: ATOMS id type x y z ix iy iz vx vy vz fx fy fz omegax omegay omegaz radius 
13821 1 -1.59505 -0.511127 5.57594 0 0 0 0.275183 105.576 -171857 -0.138558 1486.98 -39.8079 4511.3 3783.37 -2558.63 0.05 
9412 1 -2.15414 -0.351708 5.56734 0 0 0 1.89465 14.6512 -171840 -0.451337 75.3664 -39.8079 -9278.38 13846.1 5701.27 0.05 
10206 1 -3.22572 0.653273 5.59931 0 0 0 223.625 -338.348 -170107 725.1 -47578.9 -39.8079 5136.14 -10974 -8981.36 0.05 
12795 1 -2.98794 -0.318499 5.64264 0 0 0 496.068 -76.1835 -168732 9.27144 42.538 -39.8079 -10403.9 3184.62 3882.04 0.05 
13215 1 -0.227486 -0.105999 5.63152 0 0 0 -0.415757 615.338 -169069 0 0.549945 -39.8079 56.5582 22216.6 -6775.57 0.05 
7183 1 -0.750524 -0.362499 5.69037 0 0 0 -0.775491 310.248 -166448 0 90.8887 -39.8079 -12783.2 -9045.73 -4366.71 0.05 
4371 1 -1.71273 0.398626 5.67711 0 0 0 0.978137 -152.086 -167037 -0.173178 -171.775 -39.8079 17513.9 -2599.57 17.1685 0.05 
11397 1 -0.430417 0.754161 5.68427 0 0 0 0.381765 55.8153 -166689 0 -1.48743e+06 -39.8079 9019.46 16450.5 -5556.43 0.05 
12202 1 -1.69936 -0.493556 5.74149 0 0 0 179.822 82.4998 -164076 -0.168741 1036.07 -39.8079 9591.61 11592.2 3632.57 0.05 
10576 1 -3.27092 0.236064 5.74773 0 0 0 288.579 -171.664 -164748 1827.1 -10.0588 -39.8079 -34639.3 13625.1 1203.32 0.05 
13017 1 -1.4873 -0.796617 5.77006 0 0 0 0.909249 566.599 -163153 -0.114108 9.90738e+06 -39.8079 -24189.3 -7438.98 3021.17 0.05 
8448 1 -0.483479 -0.800765 5.84639 0 0 0 0.508839 330.599 -159922 0 1.21748e+07 -39.8079 -5624.8 -12451.1 599.922 0.05 
13635 1 -1.11898 0.677094 5.85654 0 0 0 1.12983 -248.768 -159669 0 -97092.8 -39.8079 23219.4 1106.72 3265.97 0.05 
11049 1 -2.64946 -0.218458 5.90053 0 0 0 133.741 -5.5785 -157302 -1.58463 7.26797 -39.8079 18.8217 -15907.8 3665.63 0.05 
9405 1 -1.49459 0.136784 5.90994 0 0 0 152.075 67.4589 -157450 -0.115584 -1.28415 -39.8079 -6349.9 -4238.04 -3403.14 0.05 
11202 1 -0.850531 0.249875 5.86799 0 0 0 123.447 238.648 -159224 0 -12.899 -39.8079 -9912.06 27218.7 2176.75 0.05 
11924 1 -1.4842 -0.544139 5.95033 0 0 0 0.0425372 -132709 -156145 -0.113487 3027.42 -39.8079 -713.479 -4098.91 8296.87 0.05 
12319 1 -0.0529325 0.16062 5.92017 0 0 0 -0.207636 85.6351 -158386 0 -2.25115 -39.8079 -4133.99 98548.8 -3973.59 0.05 
13254 1 -1.96442 0.529122 5.9477 0 0 0 -0.150736 27.645 -155765 -0.291484 -2178.75 -39.8079 -7367.64 -23625.4 3565.41 0.05 
12761 1 -0.541567 0.531974 5.93904 0 0 0 0.273628 -327.088 -156298 0 -2317.5 -39.8079 16792.2 -12762.6 -880.602 0.05 
11242 1 -1.16453 0.579669 5.97745 0 0 0 -0.0422323 -200.705 -155175 0 -6874.92 -39.8079 11388 -13157.8 4496.39 0.05 
12900 1 -3.48968 0.803948 6.01046 0 0 0 309.431 -505.438 -151839 838901 -1.43022e+07 -39.8079 -23920.6 40304.7 -3110.64 0.05 
8681 1 -0.51098 0.825734 6.00129 0 0 0 -0.925695 -703.249 -153783 0 -4.64544e+07 -39.8079 -50699.1 11980.1 1235.89 0.05 
12566 1 -1.89901 0.274513 6.01719 0 0 0 77.5525 -317.074 -153211 -0.253026 -19.9104 -39.8079 -16700 2013.15 5382.68 0.05 
10609 1 -1.77686 -0.320474 6.15249 0 0 0 1.51252 -165.219 -147349 -0.196577 44.0058 -39.8079 27672.1 -1753.56 3676.46 0.05 
12455 1 -2.35564 -0.309079 6.12598 0 0 0 1.67213 168.304 -148866 -0.750441 36.1813 -39.8079 7925.15 12355.5 -4376.61 0.05 
4032 1 -1.64334 0.242788 6.12348 0 0 0 0.993796 310.862 -148998 -0.15162 -11.3602 -39.8079 9126.22 20299.1 3259.07 0.05 
7677 1 -1.36622 0.537439 6.13051 0 0 0 -0.253296 -136.757 -149126 -0.092706 -2611.01 -39.8079 -7104.88 7447.28 662.835 0.05 
11415 1 -0.878432 0.828113 6.14094 0 0 0 238.893 -850.89 -148344 0 -5.32989e+07 -39.8079 -96357.5 -10605.3 1405.99 0.05 
8255 1 -3.294 -0.428973 6.1716 0 0 0 175.972 68.4649 -146740 3017.29 298.018 -39.8079 -29492.7 -11449 4606.84 0.05 
13781 1 -2.52491 -0.000990653 6.24017 0 0 0 31.3856 1.24119 -144580 -1.17424 3.9667e-07 -39.8079 5489.15 -18032.1 -657.816 0.05 
6492 1 -1.69839 0.758991 6.25101 0 0 0 110.525 -195.692 -142339 -0.168426 -1.81401e+06 -39.8079 16696.9 -12891.1 2389.16 0.05 
9165 1 -2.437 -0.76965 6.301 0 0 0 69.1415 54.7792 -141097 -0.930607 2.85192e+06 -39.8079 -44682.4 13410.2 -3042.24 0.05 
12363 1 -3.15264 -0.415812 6.28562 0 0 0 355.596 239.596 -142172 183.857 234.165 -39.8079 8225.56 -3555.31 5490.18 0.05 
6487 1 -3.35977 -0.326246 6.30227 0 0 0 396.803 223.839 -141599 14525.2 48.5941 -39.8079 12836.7 -22377.9 -7704.65 0.05 
7639 1 -0.95466 -0.193656 6.28663 0 0 0 -1.0914 165.7 -141912 0 4.5041 -39.8079 15457.6 21674 1082.4 0.05 
11852 1 -2.18612 -0.539532 6.35926 0 0 0 209.781 264.78 -138928 -0.487826 2733.99 -39.8079 11897.3 19456.2 984.161 0.05 
10766 1 -2.77742 0.0266276 6.35856 0 0 0 274.323 -645.343 -139270 -1.76826 -0.00776298 -39.8079 -41199.7 -4787.51 941.861 0.05 
12207 1 -0.638594 0.482206 6.37294 0 0 0 -0.261889 -17318 -139063 0 -825.055 -39.8079 -20262.1 -18969.9 601.985 0.05 
13278 1 -2.04463 0.817552 6.32705 0 0 0 147.39 -1135.33 -140221 -0.348921 -2.93604e+07 -39.8079 -69159.6 7820.31 8625.9 0.05 
3777 1 -2.74237 -0.274593 6.38315 0 0 0 477.102 -46658.1 -137498 -1.79799 19.9381 -39.8079 2511.96 -4716.12 -2155.11 0.05 
11713 1 -2.1542 -0.246757 6.39687 0 0 0 187.819 -811.193 -137639 -0.451399 12.1995 -39.8079 12852.1 -8865.71 6541.5 0.05 
9454 1 -2.46729 -0.122196 6.40092 0 0 0 23.8613 148.175 -137789 -1.00866 0.877816 -39.8079 8704.99 5585.32 2765.96 0.05 
3037 1 -0.656289 0.0307109 6.45615 0 0 0 51.9572 -3.79083 -135437 0 -0.0119406 -39.8079 -3964.81 -4136.05 3439.81 0.05 
9289 1 -0.142856 0.319421 6.46385 0 0 0 1.1644 -131.286 -134108 0 -43.2167 -39.8079 -3624.17 -6460.88 4435.75 0.05 
10622 1 -2.53223 -0.515539 6.49679 0 0 0 149.526 3.09032 -132670 -1.19682 1631.05 -39.8079 -19546.9 30099.5 -1973.68 0.05 
9291 1 -0.582918 -0.163702 6.52566 0 0 0 0.867404 -55.9492 -132285 0 2.4102 -39.8079 9808.39 -21308.2 -682.456 0.05 
8417 1 -2.52969 -0.79 6.57497 0 0 0 9.37304 -66460.6 -129879 -1.18897 7.19283e+06 -39.8079 7807.19 -6700.52 1209.71 0.05 
1298 1 -2.32037 -0.555764 6.57218 0 0 0 79.3297 274.913 -130642 -0.684523 3932.51 -39.8079 5833.24 8835.42 -5717.94 0.05 
6601 1 -3.06854 -0.241494 6.5692 0 0 0 222.059 156.804 -130485 41.6534 11.0982 -39.8079 1511.83 7088.19 3380.35 0.05 
10028 1 -3.44879 0.697288 6.63381 0 0 0 386.344 -271.204 -126502 194833 -185373 -39.8079 44558.4 21410.1 2807.04 0.05 
11208 1 -0.92292 0.319853 6.65301 0 0 0 -0.489781 -313.998 -127289 0 -43.5392 -39.8079 -18203.6 16205.6 -2992.52 0.05 
11214 1 -1.91046 0.817751 6.66714 0 0 0 194.512 -906.386 -125393 -0.259284 -2.96811e+07 -39.8079 -70915.1 587.244 -4847.1 0.05 
206 1 -2.29162 -0.761183 6.73488 0 0 0 83.4541 63.0409 -122356 -0.635615 1.98762e+06 -39.8079 -18401.5 -18084.4 1061.65 0.05 
2112 1 -1.3752 -0.396517 6.71218 0 0 0 111.049 -54.5447 -124158 -0.0941111 165.425 -39.8079 1233.91 1872.77 1305.06 0.05 
13478 1 -2.79373 0.408182 6.76736 0 0 0 449.637 -45.6355 -121456 -1.71095 -203.936 -39.8079 -10129.5 -26863.5 2476.92 0.05 
4730 1 -2.3519 0.573499 6.78231 0 0 0 334.723 -235.048 -121644 -0.743132 -5935.19 -39.8079 20948.1 -7961.38 -4366.16 0.05 
8660 1 -2.90199 -0.784654 6.79711 0 0 0 501.195 432.855 -119848 2.00277e+08 8.88435e+06 -5.09106e+06 14487.7 -14992.1 -8127.43 0.05 
12559 1 -2.8306 -0.772575 6.80798 0 0 0 32497.8 36.8815 -119775 -2.00277e+08 -49862.3 5.09098e+06 -43713.5 -25615.2 -13688.4 0.05 
9911 1 -2.30498 -0.190329 6.79958 0 0 0 90.3066 -152.24 -121287 -0.657831 4.21419 -39.8079 -9458.35 6156.14 792.257 0.05 
4350 1 -1.94039 -0.599492 6.85519 0 0 0 93.4383 630.452 -117650 -0.276573 11183.6 -39.8079 -12400.1 -42919.9 4136.68 0.05 
3659 1 -1.15948 -0.613879 6.87596 0 0 0 5.16334 430.699 -117801 0 16156.6 -39.8079 2733.13 11103 -565.496 0.05 
13047 1 -1.47143 -0.505664 6.84575 0 0 0 2.72496 121.486 -118930 -0.110976 1327.4 -39.8079 -5261.26 -2525.86 1985.84 0.05 
9947 1 -0.484504 -0.204914 6.86741 0 0 0 0.987894 -342.507 -117774 0 5.61643 -39.8079 -10103.5 12433.8 10082.9 0.05 
7680 1 -0.230753 0.660114 6.85735 0 0 0 -0.0890154 3.53878 -117826 0 -58100.6 -39.8079 -7670.81 -7350.76 -6526.56 0.05 
12040 1 -3.19595 0.0967245 6.9378 0 0 0 471.713 -356.738 -114849 408.401 -0.409246 -39.8079 15089.1 17082 -86.3417 0.05 
14013 1 -3.30285 -0.834821 7.00185 0 0 0 0.035325 1454.66 -0.0987978 3680.42 7.93605e+07 -39.8079 -957.997 4.39134 3796.95 0.05 
1680 1 -1.26734 -0.812519 7.00983 0 0 0 -1.09335 78716.1 1.19586 -1.75869e+07 -5.53446e+08 -5.57402e+06 -54177.1 8.70266 -1346.24 0.05 
12327 1 -1.10086 -0.821353 7.00052 0 0 0 0.0899017 636.322 -0.122623 247056 5.02298e+07 1.58625e+06 -5557.39 3.4903 4025.85 0.05 
6695 1 -0.781351 -0.827667 7.00087 0 0 0 0.0781568 921.443 -0.798353 0 5.19356e+07 -39.8079 -1135.51 -2.30872 278.721 0.05 
13221 1 -0.460278 -0.830571 7.00018 0 0 0 0.69553 908.756 -272.542 236338 5.58931e+07 1.5977e+06 -9702.49 -3184.25 -524.546 0.05 
13855 1 -1.76243 -0.756404 7.00277 0 0 0 41.2435 37.7548 0.19972 -1.48501e+07 -3.75981e+08 1.49445e+06 833.484 632.749 -2215.59 0.05 
12243 1 -0.704378 -0.751457 7.00116 0 0 0 73.9807 276.02 0.021801 2.44712e+07 -6.91779e+08 -1.93436e+06 -5498.86 336.631 -6989.66 0.05 
11028 1 -0.585252 -0.766929 7.00049 0 0 0 -0.984516 237.35 -0.455932 0 2.53586e+06 -39.8079 -3918.86 -7.42684 5029.43 0.05 
5466 1 -0.115562 -0.784033 7.00644 0 0 0 -0.314561 366.941 -1.02517 0 5.43486e+06 -39.8079 -6037.33 -0.618337 -1906.12 0.05 
13426 1 -3.28615 -0.734939 7.00829 0 0 0 232.606 167.722 1.12886 2538.04 700407 -39.8079 -1244.43 3585.95 138.524 0.05 
11386 1 -2.48259 -0.718306 7.00728 0 0 0 283.658 259.801 -189.377 -1.05045 380943 -39.8079 1642.02 7663.69 -797.809 0.05 
12444 1 -0.778908 -0.709763 7.00784 0 0 0 1.75622 -137004 -110.951 -8.48826e+06 1.5657e+09 3.23988e+07 2545.09 -3972.57 -7923.65 0.05 
11448 1 -3.35373 -0.659182 7.00548 0 0 0 340.217 0.454774 -0.219999 12445.7 56527.1 -39.8079 0.00307506 769.836 372.976 0.05 
9043 1 -2.27885 -0.662277 7.00117 0 0 0 336.617 0.513276 -4.94749 -0.615188 61938.5 -39.8079 234.082 1460.24 -132.83 0.05 
9387 1 -1.88708 -0.635423 7.00169 0 0 0 365.915 93.77 -206.173 -4.63314e+06 1.25481e+08 3.40229e+06 -7777.14 -3037.86 -4651.34 0.05 
7434 1 -1.82362 -0.644186 7.00843 0 0 0 19.9753 10407 -5.56872 6.74474e+06 -1.37663e+08 751693 5684.05 578.671 -927.748 0.05 
13214 1 -1.70393 -0.641972 7.00819 0 0 0 340.053 -5.35008 -0.458106 -14592.8 68501.1 -380473 86.5141 600.061 2111.32 0.05 
13698 1 -0.547185 -0.635926 7.0008 0 0 0 362.946 140.853 -6.67564 -995740 7.79854e+07 -2.08317e+06 -2406.97 2477.34 2081.94 0.05 
3890 1 -3.45748 -0.604567 7.00435 0 0 0 444.256 0.105012 -0.0222481 261144 12714.4 -39.8079 1.2815 3947.3 792.38 0.05 
14036 1 -2.37466 -0.628514 7.00089 0 0 0 394.27 174.64 -77.2311 -0.788913 23817.7 -39.8079 -5492.48 5111.42 -5038.93 0.05 
13329 1 -1.3314 -0.596046 7.00407 0 0 0 431.973 46.1313 0.132096 -0.0874974 10259.9 -39.8079 -1454.34 4203.75 -11198.5 0.05 
5912 1 -0.358637 -0.601206 7.00151 0 0 0 424.981 309.056 -2.73073 -526838 6.82632e+07 -959255 -4486.83 4407.91 5133.91 0.05 
11316 1 -2.81328 -0.558765 7.00168 0 0 0 293.255 68.2392 -3.27977 -470850 8.56411e+07 -2.30454e+06 -1549.09 4715.35 -4488.18 0.05 
11479 1 -2.46009 -0.536377 7.00469 0 0 0 299.364 220.072 -309.647 -0.989541 2550.93 -39.8079 -3219.48 -6393.67 6509.08 0.05 
12594 1 -0.815931 -0.549784 7.0068 0 0 0 303.011 -6.38371 -1.13593 36715 152295 -197197 -27.1799 4243.89 -300.461 0.05 
10556 1 -0.71075 -0.541523 7.00977 0 0 0 309.153 160.27 -0.332089 -40171.7 -781877 858237 -5334.99 3823.36 2941.07 0.05 
9307 1 -0.26144 -0.536387 7.00187 0 0 0 290.015 454.364 0.895296 3.85459e+06 9.25358e+07 1.10334e+06 -3700.13 4723.1 1290.53 0.05 
6295 1 -3.22359 -0.473724 7.00828 0 0 0 127.873 101.819 -204.824 -3.94482e+06 1.25141e+08 -2.44896e+06 -5778.55 419.916 5230.85 0.05 
12205 1 -3.12159 -0.503408 7.00414 0 0 0 228.747 -95.0278 -77.0815 -704871 5.64158e+07 -114715 -2988.56 2295.1 6.93047 0.05 
7966 1 -2.02353 -0.520858 7.00055 0 0 0 271.21 261.382 -1.1449 -0.332565 1825.29 -39.8079 -5905.43 4623.78 3846.23 0.05 
10984 1 -1.50434 -0.506668 7.00329 0 0 0 247.14 161.594 -390.493 217637 158785 -897967 -3892.02 4357.94 493.634 0.05 
13525 1 -1.37318 -0.492408 7.00946 0 0 0 220.591 326.062 -54.2746 -1.6529e+06 -698754 -83323.7 -3494.4 1952.71 4063.13 0.05 
10082 1 -0.07474 -0.530873 7.00176 0 0 0 0.0743999 -56973.1 -6.43075 -4.93734e+06 7.50131e+08 3.86834e+07 -54758 85.034 -32649.3 0.05 
5517 1 -3.48385 -0.433773 6.99998 0 0 0 7066.97 -5.31093 -2.86951 -6.80775e+07 1.25918e+06 334216 3.6949 -3084.31 4357.7 0.05 
13644 1 -2.15844 -0.468764 7.00129 0 0 0 110.369 295.128 -157.608 -0.45604 633.31 -39.8079 3610.94 -316.962 8389.43 0.05 
7418 1 -1.68383 -0.45092 6.99973 0 0 0 0.514568 2.61518 -265.136 -0.163765 449.393 -39.8079 5489.76 -2169.14 -97.8091 0.05 
3483 1 -0.640051 -0.471794 7.0094 0 0 0 131.902 12.3433 -0.132496 40171.7 785405 -858317 387.102 1753.06 2054.88 0.05 
6072 1 -3.06718 -0.415416 7.00616 0 0 0 0.777187 -120.627 -100.472 40.6618 232.485 -39.8079 -2648.17 -4321.84 -1513.01 0.05 
11339 1 -2.07382 -0.373771 7.00574 0 0 0 2.34727 428.745 -117.105 -0.373192 110.661 -39.8079 -6443.07 -4632.08 -1266.77 0.05 
12492 1 -1.42302 -0.404895 7.00936 0 0 0 -0.51558 284.147 -257.148 -0.10206 192.212 -39.8079 -2755.5 5907.27 4906.39 0.05 
2539 1 -1.1615 -0.407865 7.0089 0 0 0 0 0.00124925 -0.00024525 0 202.774 -39.8079 0 0 0 0.05 
6261 1 -0.775941 -0.372348 6.99919 0 0 0 0.297679 1.63495 -309.052 30535.6 206704 -40990.6 -1147.91 3748.34 39.1055 0.05 
11157 1 -0.354933 -0.412803 7.00165 0 0 0 -0.363799 253.588 -0.029777 0 221.711 -39.8079 -2619.93 -3.18921 5536.32 0.05 
12860 1 -0.240008 -0.409852 7.00328 0 0 0 -0.284916 204.507 0.286917 -1.6371e+06 1.04849e+08 464573 -1872.53 -3.95604 -5344.59 0.05 
3298 1 -2.40126 -0.352313 7.00717 0 0 0 65.2208 251.121 -207.485 -0.846338 76.1611 -39.8079 -7407.33 4969.75 -8391.18 0.05 
13080 1 -1.63049 -0.326762 7.0038 0 0 0 0.497336 54.0028 -0.241835 -0.147999 49.0272 -39.8079 -97.0824 9.16583 3886.98 0.05 
11927 1 -1.26368 -0.325899 7.00107 0 0 0 0.226222 -336.624 -0.503251 -0.0783714 48.3052 -39.8079 1481.56 0.0700482 588.26 0.05 
246 1 -1.9775 -0.307979 7.00776 0 0 0 260.68 227.106 -0.510794 -0.30001 35.504 -39.8079 -4401.5 1334.13 -10537.5 0.05 
13413 1 -0.751371 -0.272285 7.0087 0 0 0 1.35237 3.12833 -73.1213 304317 1.76901e+06 -92281.6 3173.68 51.621 32.6198 0.05 
13443 1 -2.62554 -0.236407 7.00643 0 0 0 313.471 235.226 -303.185 -1.50519 10.1217 -39.8079 -8922.86 -1780.99 4818.83 0.05 
11055 1 -1.5872 -0.224441 7.00949 0 0 0 0.0299348 245.704 -0.216221 -0.13657 8.12594 -39.8079 -5405.49 -1.27591 3018.14 0.05 
9031 1 -1.07493 -0.255678 7.00495 0 0 0 -0.349827 0.55816 -0.133424 0 14.3013 -39.8079 -36.4954 -0.289483 8.36268 0.05 
10863 1 -3.53962 -0.176193 7.00654 0 0 0 4535.49 -3.46337 -2.60265 -2.3143e+07 -1.40602e+06 -1.46199e+06 38.7042 -666.359 4914.13 0.05 
11894 1 -3.17381 -0.176283 7.00156 0 0 0 96.2001 2.94415 -1.66099 104723 1.42984e+06 -880837 -65.0031 709.507 4019.73 0.05 
11268 1 -1.93233 -0.197227 6.96036 0 0 0 1.76208 -81.2142 -114222 -0.271782 4.83414 -39.8079 29864.8 -3618.73 -685.673 0.05 
4622 1 -1.8221 -0.210527 7.01014 0 0 0 244.49 -333.37 -1.40288 2.76886e+08 -1.01464e+07 -8.26263e+06 1616.03 907.216 5481.88 0.05 
7242 1 -1.01376 -0.157911 7.00723 0 0 0 0.575333 0.379946 -184.543 0 2.11849 -39.8079 3269.03 5355.09 3.02773 0.05 
12122 1 -0.561727 -0.185344 7.00064 0 0 0 -0.0620693 -1.20263 -441.742 0 3.80975 -39.8079 -1816.88 2325.66 -31.234 0.05 
13658 1 -0.159218 -0.166186 7.00003 0 0 0 -0.0761403 -113.649 -100.581 0 2.54495 -39.8079 -2639.43 -3401.52 -4764 0.05 
12127 1 -2.82774 -0.11021 7.00652 0 0 0 0.149022 -17.5509 -51.8904 -1.4512 0.624398 -39.8079 -1219.28 2152.68 -731.6 0.05 
6839 1 -2.9365 -0.0589031 7.0006 0 0 0 91.1857 -7.34026 -0.64513 2.60417 0.0866181 -39.8079 -34.7173 3569.02 -2026.01 0.05 
9952 1 -1.27542 -0.0717012 7.0053 0 0 0 83.8854 -335.815 -0.280625 -0.079865 0.159132 -39.8079 779.265 3131.86 -3371.85 0.05 
13065 1 -0.446807 -0.0701982 7.00084 0 0 0 1.32245 -66.5616 -0.223264 -1.90416e+06 -1.90516e+08 -224349 774.209 6.27889 2710.87 0.05 
11753 1 -2.68419 -0.00871132 7.00507 0 0 0 155.219 36.8465 -133.795 64353.8 4632.75 867681 1420.32 1705.93 5394.75 0.05 
13038 1 -2.38421 -0.0460632 7.01027 0 0 0 161.271 206.678 -0.976185 406139 -211114 -582373 -2284.97 5517.97 -8059.24 0.05 
9721 1 -2.21335 -0.0449265 7.00071 0 0 0 121.847 27.1517 -0.159283 1.18653e+07 -5.27369e+08 4.39832e+06 -134.497 4813.48 -262.33 0.05 
11177 1 -1.65913 -0.0167093 7.00187 0 0 0 143.5 -18.6967 -0.872529 -147786 -307676 -548134 885.74 5529.39 80.6821 0.05 
10773 1 -0.273206 -0.0428174 7.00161 0 0 0 0.335501 276.649 -136.982 0 0.0326775 -39.8079 1679.57 3050.63 -4799.96 0.05 
9438 1 -3.53375 0.0218915 7.00378 0 0 0 4819.58 4.3201 1.8857 -3.54943e+07 -456057 -574013 -108.055 1968.99 -1699.09 0.05 
1157 1 -1.05353 0.0220042 7.00782 0 0 0 115.779 0.284654 -0.332837 0 -0.00437001 -39.8079 -34.9352 4161.11 2477.71 0.05 
2032 1 -0.422475 0.0502767 7.00115 0 0 0 0 -3.28427e-07 -0.00024525 0 -0.053309 -39.8079 0 0 0 0.05 
5587 1 -2.27483 0.0582498 7.00885 0 0 0 49.1471 -0.000492796 -4.33174e-05 -0.608927 -0.0836974 -39.8079 0.0239871 1769.72 -1519.39 0.05 
4228 1 -2.03872 0.0883446 7.00419 0 0 0 120.101 2.95065 -0.866519 -3.80779e+06 -1.57047e+07 -8.14463e+06 21.1338 4546.59 -2376.96 0.05 
5683 1 -1.90263 0.057724 7.00453 0 0 0 24.7927 -107.696 -0.310805 903937 123488 -308802 839.896 928.216 -5248.68 0.05 
11421 1 -3.53546 0.15512 7.0034 0 0 0 4699.33 -20.8138 -0.123841 -5.26524e+07 -1.29554e+08 -6.80019e+06 684.888 1563.07 1285.01 0.05 
1592 1 -1.43966 0.117863 7.00833 0 0 0 175.767 236.509 -226.107 -0.10502 -0.778647 -39.8079 -3519.82 91.4354 5863.85 0.05 
3720 1 -0.322292 0.113477 7.00094 0 0 0 -0.642987 314.366 -1.08915 0 -0.687125 -39.8079 -3270.22 -0.33877 1866.9 0.05 
11518 1 -3.2494 0.186149 7.00329 0 0 0 2.19663 -37.1953 -231.056 7.63796e+06 -1.57224e+08 471466 -5290.97 -2650.49 946.386 0.05 
8568 1 -3.02181 0.189692 7.00797 0 0 0 1.26803 -192.696 -0.129822 17.9548 -4.16055 -39.8079 -835.018 12.1587 1442.62 0.05 
11832 1 -2.59856 0.185934 7.00213 0 0 0 0.0797739 -2.053 -0.0473265 3.10724e+06 -8.06587e+07 -1.84509e+06 50.9535 0.469215 65.8842 0.05 
11037 1 -1.58302 0.169701 7.00231 0 0 0 73.5789 23.9816 -119.53 7.124e+06 -5.68343e+08 2.21277e+07 -1606.1 3775.73 2042.95 0.05 
5472 1 -1.06037 0.185039 7.00206 0 0 0 -0.480115 0.438009 -0.479823 0 -3.78619 -39.8079 -36.5086 0.40685 1.12942 0.05 
8636 1 -0.449464 0.159582 7.00617 0 0 0 -4.23515 -277.86 -3.5059 146228 -2.10397e+08 122161 2882.63 -3.0805 3046.84 0.05 
13760 1 -3.58548 0.254565 7.00092 0 0 0 1443.85 -171.065 -1.0742 7.23675e+07 -1.22692e+08 8.1021e+06 5652.7 1897.78 66.7888 0.05 
10467 1 -3.39086 0.225065 7.00623 0 0 0 -0.196147 -33.5512 0.194772 412135 -1.2018e+08 702256 355.993 -12.7 -1449.68 0.05 
3741 1 -1.25446 0.225235 7.0102 0 0 0 0.444528 -331.801 -0.221706 -0.0772228 -8.24637 -39.8079 -7.20369 -1.50365 1997.48 0.05 
6836 1 -0.737036 0.275068 7.00358 0 0 0 0.666235 5.3506 -0.280494 0 -20.1039 -39.8079 -128.411 -2.73545 -15.7716 0.05 
5181 1 -3.31265 0.346249 7.00142 0 0 0 340.174 -308.945 -1.13237 4605.19 -68.5788 -39.8079 3858.65 5791.69 -7304.2 0.05 
5457 1 -2.83068 0.322907 7.005 0 0 0 219.112 0.624145 -65.9053 -1.41702 -45.884 -39.8079 -2818.02 6535.62 -4939.71 0.05 
4861 1 -2.72491 0.353914 7.01027 0 0 0 391.822 -163.126 -97.4884 -732530 -303386 -862135 648.256 1994.72 -10388.9 0.05 
9264 1 -2.58825 0.318796 7.01012 0 0 0 195.309 -97.3733 -1.00108 -1.37897 -42.7554 -39.8079 2085.51 5294.97 -196.299 0.05 
7879 1 -2.47403 0.352492 7.0101 0 0 0 383.677 63.2495 -1.19797 -1.02687 -76.3976 -39.8079 2402.55 5587.35 -4912.58 0.05 
13743 1 -2.13915 0.356305 7.00111 0 0 0 214.145 2.25416 -1.94639 -0.435352 -81.6154 -39.8079 48.7487 276.989 -6015.55 0.05 
12717 1 -1.96557 0.366631 7.00125 0 0 0 246.331 -114.038 -0.363034 -173306 119336 -194462 2666.6 317.555 -2061.95 0.05 
5648 1 -1.35464 0.329532 7.00357 0 0 0 -0.379139 -11.0987 -2.34767 1.7902e+06 -1.35278e+08 7.81306e+06 3261.49 -30.2429 -8169.48 0.05 
13166 1 -1.84397 0.418565 7.00304 0 0 0 70879.8 274.096 1.92344 -4.02858e+08 1.27576e+07 -1.61426e+07 -917.665 -61410.2 -27460.7 0.05 
11062 1 -0.771387 0.40238 7.00205 0 0 0 4.20285 -158.246 -3.86504 1.70677e+07 9.00671e+08 -1.2926e+07 1510.85 -3.14066 2261.31 0.05 
12140 1 -0.470412 0.379989 7.00346 0 0 0 -0.143833 -443.281 -0.391831 0 -123.428 -39.8079 5182.57 -4.78839 457.63 0.05 
4450 1 -3.09668 0.434877 7.00508 0 0 0 318.54 -151.328 -1.00245 -375259 -4.33415e+08 -4.83032e+06 -403.701 -134.177 -1171.13 0.05 
13401 1 -1.49074 0.4458 7.00644 0 0 0 -1.85166 -254.674 -143.133 -659431 -1.1952e+06 -1.83193e+06 8794.9 446.578 -1358.44 0.05 
13997 1 -1.31737 0.436268 7.0015 0 0 0 0.291073 -246.317 -0.19783 -0.0855025 -341.18 -39.8079 4166.26 15.5116 -8390.29 0.05 
12657 1 -1.2116 0.457675 7.00115 0 0 0 0.149443 -231.993 -0.112359 0 -511.193 -39.8079 996.856 -2.47231 6286.94 0.05 
13330 1 -0.055157 0.427664 7.00397 0 0 0 0.727938 -322.146 -0.203271 0 -290.91 -39.8079 -283.101 -2.77456 2996.53 0.05 
12618 1 -3.58187 0.483947 7.00062 0 0 0 1218.08 -183.081 -6.8207 5.8962e+07 -4.92768e+06 -4.57607e+08 6102.86 663.038 1886.58 0.05 
2817 1 -2.63531 0.482503 7.00438 0 0 0 185.563 -233.513 -1.24101 -1.53797 -829.943 -39.8079 5470.18 -160.668 9756.99 0.05 
10857 1 -2.38499 0.480087 7.0086 0 0 0 208.259 69.1924 -8.50749 -0.810684 -791.064 -39.8079 775.796 -375.938 4610.69 0.05 
1235 1 -2.11835 0.524687 7.00692 0 0 0 17.7971 -73.0479 -1.16375 3.01881e+08 -7.96584e+07 7.66568e+06 1573.75 60.2011 -2784.61 0.05 
13078 1 -1.40172 0.50943 7.00248 0 0 0 -1.33678 32.9336 -263.241 -0.0984196 -1435.29 -39.8079 638.305 4515.73 2594.61 0.05 
12409 1 -0.163606 0.481404 7.00725 0 0 0 0.00492049 -89.4905 -0.0196424 0 -812 -39.8079 -239.633 0.847826 -3950.1 0.05 
10883 1 -3.17127 0.532496 7.00858 0 0 0 2.28892 -177.17 -4.33282 5.56125e+06 -1.16475e+08 -697201 1148.5 56.6503 -1703.77 0.05 
3048 1 -3.04698 0.569974 7.00355 0 0 0 2.25761 -312.292 -0.304403 28.4086 -5462 -39.8079 3755.63 52.6541 108.242 0.05 
3352 1 -1.51551 0.552629 7.00713 0 0 0 -1.73639 -238.833 0.315494 -0.119953 -3662.47 -39.8079 4449.81 -41.4124 -4446.61 0.05 
13715 1 -1.90687 0.599626 7.00415 0 0 0 -3.32052 -85.3801 -73.4379 -202605 192925 102927 3301.42 -2193.5 -3636.13 0.05 
13544 1 -1.42288 0.60865 7.00701 0 0 0 0.113371 -40.1133 -76.1386 -0.102036 -14113.1 -39.8079 7605.27 2167.8 6315.21 0.05 
13720 1 -3.03478 0.67657 7.00918 0 0 0 319.89 -342.17 -0.632579 22.7962 -95528.4 -39.8079 2873.36 6100.38 -4091 0.05 
10007 1 -2.65359 0.638383 7.00418 0 0 0 419.229 -315.992 -2.42925 -1.598 -31207.7 -39.8079 6108.15 5255.52 -8261.48 0.05 
11300 1 -2.10327 0.640825 7.00817 0 0 0 171.903 -136.948 -1.69033 -0.39979 -33402.8 -39.8079 2839.51 4360.19 -8703.84 0.05 
8166 1 -1.99902 0.638283 7.00049 0 0 0 135.427 -218.274 -0.48353 -69557.1 198598 127416 5032.22 4000.97 310.712 0.05 
13670 1 -1.26 0.665998 7.00023 0 0 0 0.224886 -333.274 -0.406544 -0.0779097 -69211.3 -39.8079 1502.69 -0.408066 1134.51 0.05 
5082 1 -0.78297 0.64861 7.00553 0 0 0 -0.0708252 -313.789 -0.530727 0 -41614.5 -39.8079 2508.34 0.396106 2485.1 0.05 
12413 1 -0.277158 0.637072 7.00291 0 0 0 0.665546 -103.157 -247.373 3.14029e+06 -6.35478e+08 7.3129e+06 -744.454 5577.36 -90.4093 0.05 
1098 1 -0.0776921 0.648707 7.00135 0 0 0 -0.280266 -342.412 -0.0682678 0 -41729.5 -39.8079 97.9772 0.0352206 -447.284 0.05 
11065 1 -0.676985 0.68726 7.00161 0 0 0 0.322665 -4.31285 -206.405 -58866.1 3.32009e+07 -8.37214e+08 -2694.52 5.99729 -4.45115 0.05 
7591 1 -0.677 0.7146 6.97333 0 0 0 -0.511856 71.7472 -113350 1.41877e+07 -2.69234e+07 1.29845e+09 15411.6 -7349.48 7549.02 0.05 
13682 1 -3.49835 0.778485 6.99887 0 0 0 220.225 -153.415 -366.533 7.95585e+06 -3.60786e+07 -2.80077e+06 -1504.57 8149.13 -2024.12 0.05 
13918 1 -3.39595 0.767989 7.00259 0 0 0 334.558 -127.273 -97.1193 -63329.4 -1.25717e+07 -894038 4713.51 5027.89 -7722.36 0.05 
8765 1 -2.64638 0.741828 7.00021 0 0 0 458.574 -290.779 0.209108 -1.57457 -911523 -39.8079 6231.04 8990.58 8896.36 0.05 
5525 1 -1.71804 0.759146 7.00272 0 0 0 263.605 -89.2915 -325.141 -1.26303e+06 -3.03639e+07 -1.7561e+06 1399.74 10902.1 388.699 0.05 
13280 1 -1.58256 0.751999 7.00241 0 0 0 150.386 -31.6243 -1.42291 1.7975e+08 -8.40788e+06 -6.77963e+06 265.371 4728.34 -3127.85 0.05 
1151 1 -1.13884 0.740847 7.0062 0 0 0 -0.144443 -33.1508 -200.128 -217096 -3.18423e+06 -316839 6298.1 1939.12 -1328.67 0.05 
12807 1 -0.28114 0.747694 7.00113 0 0 0 1.48152 -292.792 -5.36624 -651705 -5.77136e+07 -860477 2784.1 -18.5629 1351.47 0.05 
7302 1 -3.51111 0.806172 7.00679 0 0 0 403.974 -3621.19 -299.547 6.65895e+06 4.49244e+07 -66682.3 2083.85 4794.43 -12.5119 0.05 
12715 1 -3.09222 0.793645 7.0052 0 0 0 531.6 -595.459 -2.1619 -563866 -1.06173e+07 299166 4897.44 7246.56 2389.57 0.05 
12133 1 -2.35336 0.809117 7.0089 0 0 0 160.049 -3466.27 1.77301 -100044 2.03614e+07 -6145.18 -2361.25 4393.42 403.92 0.05 
12721 1 -0.945827 0.822279 7.00776 0 0 0 -0.221408 -2712.38 -196.032 -434560 -2.45849e+07 1.61629e+06 4980.63 6455.93 -680.83 0.05 
12971 1 -0.488416 0.821343 7.00744 0 0 0 0.473905 -842.796 -376.435 -122559 -3.49213e+07 -559943 5306.6 -1727.05 -645.967 0.05 
8282 1 -0.132561 0.800827 7.00935 0 0 0 0.0259048 -508.873 -0.159527 0 -1.22126e+07 -39.8079 5218.66 8.24512 -5141.88 0.05 
9159 1 -1.67336 -0.880694 7.03895 0 0 0 290.307 148717 1.41341 4.19791e+07 1.09252e+09 -1.58276e+06 -10287.9 6594.42 5589.68 0.05 
3315 1 -3.5213 -0.789334 7.04712 0 0 0 348.651 4473.93 4.27933 6.65784e+07 -3.56902e+07 923296 -1085.63 -64.1619 223.811 0.05 
9812 1 -3.45727 -0.791188 7.04744 0 0 0 7799.87 4294.17 6.39863 -2.85939e+08 -8.59733e+07 604999 -917.435 -810.531 7731.57 0.05 
196 1 -3.09803 -0.832077 7.01095 0 0 0 -3.76984 1792.98 -2.01456 5.47898e+06 5.72713e+08 2.29786e+06 -4415.81 19.3201 -646.095 0.05 
5196 1 -3.04837 -0.82415 7.02741 0 0 0 16.1813 78041.4 2.37189 -4.94663e+06 -8.40063e+08 -3.54353e+06 -13356.5 35.3922 -1683.3 0.05 
5328 1 -2.50447 -0.81227 7.04152 0 0 0 24.3867 519.91 -132.569 -1.11299 2.20698e+07 -39.8079 -6425.42 5100.7 6678.67 0.05 
2998 1 -2.28317 -0.812901 7.03433 0 0 0 5.48055 3304.74 -219.6 3.61541e+06 -1.37314e+07 -940999 -6383.67 -872.208 976.935 0.05 
8924 1 -2.1772 -0.829695 7.04028 0 0 0 0.97241 1021.05 0.133391 558651 5.67077e+07 280865 98.1314 -9.81197 5917.02 0.05 
3847 1 -1.89517 -0.800935 7.02185 0 0 0 -1.2819 439.318 -0.732169 3.78007e+06 -3.62021e+08 -917329 -4371.43 -23.1307 56.6467 0.05 
10884 1 -1.81842 -0.810224 7.01958 0 0 0 4.97823 -67409.7 -71.5302 1.10109e+07 7.74509e+08 445518 -23888.4 1470.53 -1620.39 0.05 
11919 1 -1.71602 -0.832561 7.03997 0 0 0 142.209 715.026 -0.885196 -4.192e+07 1.02778e+09 559918 4164.54 4603.85 2206.98 0.05 
7511 1 -1.59542 -0.819374 7.05581 0 0 0 38.3188 631.449 0.0619902 -0.138654 3.24594e+07 -39.8079 -72.906 844.788 3944.86 0.05 
7214 1 -1.3743 -0.822893 7.04019 0 0 0 52.8846 764.547 0.11843 -0.0939699 3.95173e+07 -39.8079 1205.58 1709.53 -4107.52 0.05 
2483 1 -1.23788 -0.799032 7.02337 0 0 0 2.87617 246.31 -31.6201 1.56987e+07 5.58353e+08 -6.26096e+08 -2607.78 -34.6167 3402.95 0.05 
4837 1 -3.57767 -0.777446 7.04038 0 0 0 2155.65 221.155 8.35175 2.6069e+07 3.18894e+07 3.21575e+06 -2885.76 7237.68 4503.1 0.05 
13799 1 -3.51083 -0.788863 7.01337 0 0 0 253.852 292.323 -19.9473 6.34902e+07 3.17923e+07 -2.92875e+06 -3917.93 4046.96 1314.38 0.05 
3503 1 -3.40109 -0.772515 7.03288 0 0 0 61.7976 5297.19 4.82537 5.72295e+07 -8.62631e+07 -1.83719e+06 93.45 402.41 333.923 0.05 
10435 1 -3.40116 -0.781314 7.02071 0 0 0 137.83 244.612 -8.84423 5.11994e+07 6.93726e+07 -3.57709e+06 -1368.56 4147.84 -2312.88 0.05 
1442 1 -3.17484 -0.757251 7.02101 0 0 0 136.036 299.614 -2.26685 669902 3.6943e+06 -316884 -638.933 5250.79 -6524.52 0.05 
9943 1 -2.93155 -0.768624 7.01431 0 0 0 146.032 485.876 -558.642 -3.25536e+06 1.4121e+07 -1.41253e+06 279.231 12864.6 -1383.75 0.05 
3695 1 -2.81498 -0.783264 7.05238 0 0 0 227.92 318.361 -230.641 -883211 1.71577e+07 517680 275.904 -5403.82 -9466.38 0.05 
2986 1 -2.33876 -0.773904 7.0232 0 0 0 112.305 78.8427 -280.012 -3.39596e+06 3.06055e+07 556141 -2020.91 8964.39 -769.218 0.05 
10357 1 -2.11909 -0.751968 7.01963 0 0 0 178.739 344.201 -0.252015 -558652 3.11737e+06 -280944 685.758 4852.33 -5157.66 0.05 
1959 1 -1.47896 -0.771706 7.02052 0 0 0 90.9175 5435.94 -327.004 -691053 -3.24051e+07 689454 -6007.7 2622.5 -48.91 0.05 
5135 1 -1.132 -0.747665 7.05939 0 0 0 11.0257 128.434 -3.28293 1.12595e+06 4.21984e+07 -2.37403e+06 -446.276 -185.309 -277.225 0.05 
7950 1 -0.983721 -0.777437 7.02038 0 0 0 -1.27875 347.358 -1.90868 -314014 3.28659e+07 -16500.9 -1568.3 31.1479 -3621.2 0.05 
1945 1 -0.92128 -0.771451 7.05849 0 0 0 -3.27586 5353.71 5.30815 -939906 -6.21207e+07 1.01444e+06 -3138.76 27.7435 676.591 0.05 
8455 1 -0.880157 -0.759462 7.02993 0 0 0 4.60969 117.278 -3.46717 1.25392e+06 3.82123e+07 -998060 -1457.95 -3.62401 -2218.79 0.05 
14035 1 -0.50283 -0.767126 7.05919 0 0 0 2.45923 310.792 -280.82 338739 5.23566e+06 -138845 7904.16 2634.87 -3549.57 0.05 
3099 1 -0.40294 -0.761344 7.03107 0 0 0 -0.0730383 391.025 -93.1441 -575076 4.98784e+06 -1.45897e+06 -1752.82 -3577.43 2268.16 0.05 
7914 1 -0.276453 -0.741243 7.01916 0 0 0 130.627 571.724 -0.561287 0 891109 -39.8079 -3597.94 -530.151 -2387.15 0.05 
9896 1 -3.06767 -0.70356 7.01043 0 0 0 312.179 -107.182 -0.133985 41.019 228598 -39.8079 -3530.55 2035.51 -6069.64 0.05 
13501 1 -2.71658 -0.681928 7.01576 0 0 0 154.126 158151 1.97115 7.93394e+07 -2.66921e+09 -4.791e+06 13533.3 4213.66 -3794.39 0.05 
3621 1 -2.66388 -0.726593 7.01338 0 0 0 281.011 382.245 -0.621017 -4.36194e+07 9.75582e+08 -641850 -4574.33 4271.6 -6151.34 0.05 
8987 1 -2.21915 -0.731068 7.0476 0 0 0 388.135 34.1166 -148.685 -0.529268 605820 -39.8079 2698.07 -1664.29 -2835.43 0.05 
8822 1 -1.96097 -0.704891 7.04468 0 0 0 521.027 395.159 -0.278023 -0.289278 239129 -39.8079 -313.808 4662.34 -5803.63 0.05 