ITEM: TIMESTEP
360000
ITEM: NUMBER OF ATOMS
14052
ITEM: BOX BOUNDS ff pp ff
-3.75 3.75
-1 1
0 10
ITEM: ATOMS id type x y z ix iy iz vx vy vz fx fy fz omegax omegay omegaz radius 
13821 1 -1.59504 -0.509966 3.68551 0 0 0 0.275183 105.58 -171857 -0.138557 1451.39 -39.8079 4511.3 3783.37 -2558.63 0.05 
9412 1 -2.15412 -0.351546 3.6771 0 0 0 1.89464 14.6514 -171840 -0.451314 75.1565 -39.8079 -9278.38 13846.1 5701.27 0.05 
10206 1 -3.22326 0.64955 3.72813 0 0 0 223.627 -338.471 -170107 690.861 -42747.6 -39.8079 5136.14 -10974 -8981.36 0.05 
12795 1 -2.98248 -0.319337 3.7866 0 0 0 496.068 -76.1834 -168732 8.27069 43.1548 -39.8079 -10403.9 3184.62 3882.04 0.05 
13215 1 -0.227491 -0.0992304 3.77177 0 0 0 -0.415757 615.338 -169069 0 0.444291 -39.8079 56.5582 22216.6 -6775.57 0.05 
4371 1 -1.71272 0.396953 3.8397 0 0 0 0.978136 -152.086 -167037 -0.173174 -166.718 -39.8079 17513.9 -2599.57 17.1685 0.05 
7183 1 -0.750533 -0.359086 3.85944 0 0 0 -0.775491 310.248 -166448 0 85.6527 -39.8079 -12783.2 -9045.73 -4366.71 0.05 
11397 1 -0.430413 0.754753 3.85069 0 0 0 0.381765 51.7336 -166689 0 -1.52371e+06 -39.8079 9019.46 16450.5 -5556.43 0.05 
12202 1 -1.69738 -0.492648 3.93666 0 0 0 179.822 82.5026 -164076 -0.168097 1017.22 -39.8079 9591.61 11592.2 3632.57 0.05 
10576 1 -3.26774 0.234176 3.9355 0 0 0 288.584 -171.664 -164748 1708.18 -9.71876 -39.8079 -34639.3 13625.1 1203.32 0.05 
13017 1 -1.48729 -0.790251 3.97537 0 0 0 0.909248 589.716 -163153 -0.114106 7.27923e+06 -39.8079 -24189.3 -7438.98 3021.17 0.05 
8448 1 -0.483473 -0.796958 4.08725 0 0 0 0.508839 360.698 -159922 0 1.0075e+07 -39.8079 -5624.8 -12451.1 599.922 0.05 
13635 1 -1.11897 0.674356 4.10018 0 0 0 1.12983 -249.02 -159669 0 -89218.6 -39.8079 23219.4 1106.72 3265.97 0.05 
11202 1 -0.849173 0.2525 4.11652 0 0 0 123.447 238.648 -159224 0 -13.5166 -39.8079 -9912.06 27218.7 2176.75 0.05 
11049 1 -2.64799 -0.21852 4.1702 0 0 0 133.741 -5.57848 -157302 -1.57984 7.27634 -39.8079 18.8217 -15907.8 3665.63 0.05 
9405 1 -1.49292 0.137532 4.178 0 0 0 151.715 116.58 -157451 -5.66175e+06 8.06549e+08 -2.78545e+07 -7637.82 -4240.38 -3199.53 0.05 
12319 1 -0.0529348 0.161562 4.17792 0 0 0 -0.207636 85.6351 -158386 0 -2.29882 -39.8079 -4133.99 98548.8 -3973.59 0.05 
11924 1 -1.4842 0.0938361 4.23274 0 0 0 0.402132 132660 -156143 5.66175e+06 -8.06549e+08 2.78544e+07 -2001.39 -4101.25 8500.48 0.05 
13254 1 -1.96443 0.529426 4.23428 0 0 0 -0.150737 27.6391 -155765 -0.291485 -2193.1 -39.8079 -7367.64 -23625.4 3565.41 0.05 
12761 1 -0.541564 0.528376 4.21976 0 0 0 0.273628 -327.094 -156298 0 -2143.97 -39.8079 16792.2 -12762.6 -880.602 0.05 
11242 1 -1.16453 0.577461 4.27053 0 0 0 -0.0422323 -200.724 -155175 0 -6521.14 -39.8079 11388 -13157.8 4496.39 0.05 
8681 1 -0.51099 0.8174 4.30967 0 0 0 -0.925695 -804.193 -153783 0 -2.91163e+07 -39.8079 -50699.1 11980.1 1235.89 0.05 
12566 1 -1.89816 0.271026 4.33187 0 0 0 77.5525 -317.074 -153211 -0.252567 -18.7345 -39.8079 -16700 2013.15 5382.68 0.05 
12900 1 -3.48626 0.798194 4.34024 0 0 0 311.563 -539.133 -151839 736325 -1.07093e+07 -39.8079 -23920.6 40304.7 -3110.64 0.05 
12455 1 -2.35562 -0.307227 4.48845 0 0 0 1.67213 168.304 -148866 -0.750405 35.048 -39.8079 7925.15 12355.5 -4376.61 0.05 
4032 1 -1.64333 0.246208 4.48451 0 0 0 0.993796 310.862 -148998 -0.151616 -12.08 -39.8079 9126.22 20299.1 3259.07 0.05 
7677 1 -1.36622 0.535934 4.49012 0 0 0 -0.253297 -136.764 -149126 -0.0927064 -2526.36 -39.8079 -7104.88 7447.28 662.835 0.05 
11415 1 -0.875805 0.818087 4.50916 0 0 0 238.893 -961.511 -148344 0 -3.02353e+07 -39.8079 -96357.5 -10605.3 1405.99 0.05 
8255 1 -3.29206 -0.42822 4.55746 0 0 0 175.98 68.4657 -146740 2890.43 293.905 -39.8079 -29492.7 -11449 4606.84 0.05 
10609 1 -1.77684 -0.322291 4.53165 0 0 0 1.51252 -165.219 -147349 -0.19657 45.4014 -39.8079 27672.1 -1753.56 3676.46 0.05 
13781 1 -2.52456 -0.000977 4.64979 0 0 0 31.3856 1.24119 -144580 -1.17318 3.80494e-07 -39.8079 5489.15 -18032.1 -657.816 0.05 
12363 1 -3.14873 -0.413177 4.72173 0 0 0 355.596 239.597 -142172 171.359 223.221 -39.8079 8225.56 -3555.31 5490.18 0.05 
7639 1 -0.954672 -0.191834 4.7256 0 0 0 -1.0914 165.7 -141912 0 4.34325 -39.8079 15457.6 21674 1082.4 0.05 
6492 1 -1.69718 0.756812 4.68528 0 0 0 110.525 -200.395 -142339 -0.168031 -1.65783e+06 -39.8079 16696.9 -12891.1 2389.16 0.05 
9165 1 -2.43624 -0.769005 4.74893 0 0 0 69.1415 62.4053 -141097 -0.928727 2.7733e+06 -39.8079 -44682.4 13410.2 -3042.24 0.05 
6487 1 -3.3554 -0.323784 4.74468 0 0 0 396.84 223.839 -141599 12988 46.5808 -39.8079 12836.7 -22377.9 -7704.65 0.05 
11852 1 -2.18381 -0.53662 4.83105 0 0 0 209.781 264.788 -138928 -0.485078 2564.55 -39.8079 11897.3 19456.2 984.161 0.05 
10766 1 -2.7744 0.0195288 4.82659 0 0 0 274.323 -645.343 -139270 -1.77531 -0.00305141 -39.8079 -41199.7 -4787.51 941.861 0.05 
13278 1 -2.04301 0.804711 4.78461 0 0 0 147.39 -1193.01 -140221 -0.34763 -1.4871e+07 -39.8079 -69159.6 7820.31 8625.9 0.05 
3777 1 -2.73712 -0.787832 4.87067 0 0 0 477.102 -46657.3 -137498 -1.79445 6.4906e+06 -39.8079 2511.96 -4716.12 -2155.11 0.05 
11713 1 -2.15214 -0.25568 4.88283 0 0 0 187.819 -811.193 -137639 -0.449155 14.3017 -39.8079 12852.1 -8865.71 6541.5 0.05 
12207 1 -0.638597 0.291708 4.84325 0 0 0 -0.261889 -17318 -139063 0 -26.8274 -39.8079 -20262.1 -18969.9 601.985 0.05 
9454 1 -2.46703 -0.120566 4.88524 0 0 0 23.8613 148.175 -137789 -1.00795 0.839455 -39.8079 8704.99 5585.32 2765.96 0.05 
3037 1 -0.655718 0.0306692 4.96635 0 0 0 51.9572 -3.79083 -135437 0 -0.0118917 -39.8079 -3964.81 -4136.05 3439.81 0.05 
9289 1 -0.142843 0.317976 4.98867 0 0 0 1.1644 -131.287 -134108 0 -42.1578 -39.8079 -3624.17 -6460.88 4435.75 0.05 
10622 1 -2.53058 -0.515505 5.03742 0 0 0 149.526 3.09474 -132670 -1.19172 1629.88 -39.8079 -19546.9 30099.5 -1973.68 0.05 
5158 1 -0.326257 0.814776 9.79381 0 0 0 -3.5267 -1186.48 -2616.58 -2.66338e+06 -2.22353e+07 7.51549e+06 4711 -933.948 -537.054 0.05 
9291 1 -0.582908 -0.164318 5.07052 0 0 0 0.867404 -55.9492 -132285 0 2.44303 -39.8079 9808.39 -21308.2 -682.456 0.05 
1298 1 -2.3195 -0.55274 5.13512 0 0 0 79.3297 274.924 -130642 -0.682977 3671.61 -39.8079 5833.24 8835.42 -5717.94 0.05 
6601 1 -3.0661 -0.239769 5.13387 0 0 0 222.059 156.804 -130485 39.8981 10.7577 -39.8079 1511.83 7088.19 3380.35 0.05 
8417 1 -2.52959 -0.374087 5.1463 0 0 0 9.37303 66461.2 -129879 -1.18865 111.275 -39.8079 7807.19 -6700.52 1209.71 0.05 
10028 1 -3.44454 0.694302 5.24228 0 0 0 386.836 -271.683 -126502 169319 -168022 -39.8079 44558.4 21410.1 2807.04 0.05 
11208 1 -0.922925 0.316399 5.25282 0 0 0 -0.489781 -313.998 -127289 0 -41.031 -39.8079 -18203.6 16205.6 -2992.52 0.05 
11214 1 -1.90832 0.807409 5.28782 0 0 0 194.512 -968.249 -125393 -0.2581 -1.70909e+07 -39.8079 -70915.1 587.244 -4847.1 0.05 
2112 1 -1.37397 -0.397117 5.34644 0 0 0 111.049 -54.5443 -124158 -0.0939183 167.206 -39.8079 1233.91 1872.77 1305.06 0.05 
206 1 -2.2907 -0.76046 5.38896 0 0 0 83.4541 68.3493 -122356 -0.63412 1.92843e+06 -39.8079 -18401.5 -18084.4 1061.65 0.05 
13478 1 -2.78878 0.40768 5.43135 0 0 0 449.637 -45.636 -121456 -1.73203 -202.098 -39.8079 -10129.5 -26863.5 2476.92 0.05 
4730 1 -2.34822 0.570914 5.44423 0 0 0 334.723 -235.064 -121644 -0.736007 -5583.96 -39.8079 20948.1 -7961.38 -4366.16 0.05 
8660 1 -2.89612 -0.779808 5.47878 0 0 0 534.999 447.097 -119849 0.180373 4.47755e+06 -39.8079 14477.5 -14760.4 -8301.81 0.05 
12559 1 -2.47348 -0.772128 5.49046 0 0 0 32464 44.9379 -119774 -1.02539 3.17778e+06 -39.8079 -43723.8 -25383.5 -13862.8 0.05 
9911 1 -2.30399 -0.192004 5.46542 0 0 0 90.3066 -152.24 -121287 -0.65615 4.35802 -39.8079 -9458.35 6156.14 792.257 0.05 
13047 1 -1.4714 -0.504327 5.53752 0 0 0 2.72496 121.49 -118930 -0.11097 1291.26 -39.8079 -5261.26 -2525.86 1985.84 0.05 
4350 1 -1.93937 -0.592557 5.56105 0 0 0 93.4383 630.479 -117650 -0.275957 9408.85 -39.8079 -12400.1 -42919.9 4136.68 0.05 
3659 1 -1.15942 -0.609142 5.58014 0 0 0 5.16334 430.74 -117801 0 14292.6 -39.8079 2733.13 11103 -565.496 0.05 
9947 1 -0.484493 -0.208682 5.57189 0 0 0 0.987894 -342.507 -117774 0 6.0387 -39.8079 -10103.5 12433.8 10082.9 0.05 
7680 1 -0.230754 0.660153 5.56126 0 0 0 -0.0890154 3.38119 -117826 0 -58165.8 -39.8079 -7670.81 -7350.76 -6526.56 0.05 
11268 1 -1.93231 -0.198121 5.70392 0 0 0 1.76208 -81.2142 -114222 -0.27177 4.9199 -39.8079 29864.8 -3618.73 -685.673 0.05 
12040 1 -3.19076 0.0928004 5.67446 0 0 0 471.714 -356.738 -114849 370.384 -0.358471 -39.8079 15089.1 17082 -86.3417 0.05 
7591 1 -0.677 0.715354 5.7277 0 0 0 -0.00815119 68.0302 -113236 0 -343200 -39.8079 14341 -7770.88 7549.9 0.05 
12192 1 -0.206435 0.179491 5.77499 0 0 0 2.37786 -93.6073 -112466 0 -3.37738 -39.8079 19408.4 -524.192 3250.39 0.05 
13500 1 -0.507368 0.320628 5.80639 0 0 0 1.06112 -118915 -111014 0 -44.1227 -39.8079 38161.3 9002.19 3337.92 0.05 
8359 1 -2.18565 0.0556683 5.8634 0 0 0 77.7597 -401.521 -109586 -0.487263 -0.0728195 -39.8079 -5819.2 -7486.86 -11905.4 0.05 
13249 1 -1.23574 -0.75139 5.90404 0 0 0 199.43 544.001 -107671 0 1.32964e+06 -39.8079 -27288.1 23601.4 -625.568 0.05 
9169 1 -1.88541 -0.151237 5.88313 0 0 0 34.9853 72468.5 -109754 -0.245827 1.8185 -39.8079 18361.9 -32131.1 19347.1 0.05 
13159 1 -3.55575 0.486691 5.91193 0 0 0 900.819 -477.74 -107355 1.56849e+07 -902.286 -39.8079 -17199.1 -37408.3 -2407.07 0.05 
8437 1 -3.41675 0.484191 5.90466 0 0 0 585.114 38137.2 -108235 70801.8 -858.31 -39.8079 19327.7 -34445.8 -4832.02 0.05 
10939 1 -2.7391 0.641298 5.86749 0 0 0 188.799 39.8503 -108479 -1.79598 -33847.5 -39.8079 3906.56 21481.6 603.853 0.05 
12032 1 -2.87722 -0.334377 6.00708 0 0 0 290.307 -84.2954 -104733 -0.491386 55.8866 -39.8079 4790.94 -28224.8 3147.42 0.05 
13964 1 -0.20748 -0.241352 6.01997 0 0 0 -1.73267 -435.101 -104936 0 11.0698 -39.8079 -4294.31 -12211.4 -775.338 0.05 
6590 1 -3.55836 -0.131514 6.01584 0 0 0 727.396 131.805 -105312 1.79599e+07 1.12352 -39.8079 6267.37 -36918.6 8012.27 0.05 
9303 1 -0.349091 -0.119861 6.01678 0 0 0 0.589332 122.437 -105137 0 0.823249 -39.8079 -13928.1 -5148.38 933.195 0.05 
12315 1 -3.41925 0.442254 6.01201 0 0 0 198.526 122.554 -105651 76352.2 -381.586 -39.8079 29274.3 -39488.5 7802.64 0.05 
1859 1 -2.69967 0.262682 6.02463 0 0 0 110.629 -566.061 -104579 -1.73061 -16.1845 -39.8079 -5784.6 4348.33 5790.38 0.05 
6890 1 -2.16741 0.313008 6.06817 0 0 0 130.388 247.473 -103525 -0.466066 -38.7086 -39.8079 2141.05 14005.6 -3014.62 0.05 
4674 1 -1.59987 0.565785 6.05511 0 0 0 169.282 83.8348 -103803 -0.139798 -4952.64 -39.8079 24967.3 -9431.76 9902.63 0.05 
271 1 -3.47334 -0.160004 6.09062 0 0 0 266.667 194.947 -103281 456287 2.22039 -39.8079 -6456.94 40297.8 -4579.49 0.05 
13236 1 -3.13828 -0.0534748 6.0884 0 0 0 271.394 -26401 -102743 142.115 0.0643767 -39.8079 1781.1 -1637.86 4576.29 0.05 
11483 1 -1.88839 -0.727729 6.14505 0 0 0 4.93022 4887.19 -101314 -0.247385 535465 -39.8079 65648.3 -5559.14 -2364.46 0.05 
13162 1 -0.413716 0.0428492 6.22063 0 0 0 109.41 261.21 -98328.8 0 -0.0327514 -39.8079 336.558 -9142.93 2716.89 0.05 
7042 1 -1.69027 0.447134 6.18258 0 0 0 223.827 -12654.7 -100089 -0.165806 -418.306 -39.8079 -34206.3 -5516.62 3736.18 0.05 
3372 1 -1.59225 -0.0173911 6.2562 0 0 0 4.82462 104.867 -98057.9 -0.137845 0.0021532 -39.8079 -23909.3 -10681.9 -2635.59 0.05 
8516 1 -0.701541 0.26606 6.27329 0 0 0 1.42313 -60.5683 -97581.6 0 -17.1743 -39.8079 2073.26 9071.94 8287.91 0.05 
3963 1 -0.262176 0.567787 6.2674 0 0 0 2.44269 221.954 -97608.4 0 -5189.31 -39.8079 -5048.29 -19173.1 -6525.2 0.05 
10960 1 -1.21695 0.784313 6.27114 0 0 0 595.398 -3063.78 -97761.7 0 -5.50586e+06 -39.8079 -90095.7 -10669.7 9763.8 0.05 
10345 1 -3.09157 -0.714227 6.29604 0 0 0 128.2 5019.46 -96029.9 62.3961 329892 -39.8079 52479.7 4063.3 -1435.06 0.05 
4198 1 -1.48542 -0.0452077 6.32331 0 0 0 89.7897 67.2626 -96374.1 -0.11373 0.0385504 -39.8079 -21743.3 -3519.48 1061.91 0.05 
11890 1 -2.84219 0.138958 6.32241 0 0 0 451.004 -143.809 -96205.9 -1.26044 -1.35542 -39.8079 22358.7 -25560.3 3189.61 0.05 
13274 1 -1.34289 -0.796242 6.37769 0 0 0 153.741 203.652 -94381.9 -0.0891748 9.72629e+06 -39.8079 2351.61 -12550.2 -462.172 0.05 
13505 1 -0.163581 -0.227787 6.33685 0 0 0 153.17 69735 -96226 0 8.64449 -39.8079 23766.4 5473.26 -5383.39 0.05 
13612 1 -1.51833 -0.178532 6.33661 0 0 0 62.0346 -322.345 -95748.3 -0.120558 3.31068 -39.8079 -15597.4 371.408 3250.97 0.05 
10867 1 -3.06983 0.792958 6.33133 0 0 0 400.747 -486.744 -95278.5 42.6069 -8.28904e+06 -39.8079 -14545.6 26999.2 991.261 0.05 
12344 1 -0.104794 -0.229729 6.42343 0 0 0 -0.974427 -381.27 -92491.4 0 8.9589 -39.8079 -1449.49 -3011.39 12858.7 0.05 
12661 1 -3.5372 0.282076 6.42027 0 0 0 615.491 -45.1973 -93168.8 6.29923e+06 -22.7086 -39.8079 15991.1 -5875.18 -3027.09 0.05 
9422 1 -1.45388 0.433006 6.39876 0 0 0 145.633 -279.522 -93780.3 -0.107635 -321.113 -39.8079 5125.03 2882.75 6268.6 0.05 
4108 1 -0.716735 -0.613887 6.4668 0 0 0 8.49039 343.125 -91544.4 0 16160 -39.8079 23231 11283.8 -603.078 0.05 
11228 1 -0.853196 0.673893 6.47497 0 0 0 212.248 -292.183 -91138.1 0 -87958.6 -39.8079 26710.5 22515 882.167 0.05 
10394 1 -1.97924 -0.804153 6.53226 0 0 0 455.702 898.044 -89839.8 -0.30117 1.44525e+07 -39.8079 48274.2 4032.71 470.026 0.05 
10294 1 -1.68154 -0.714745 6.51476 0 0 0 8.9747 -85.5116 -90196.4 -0.163047 335936 -39.8079 15261.7 -5016.74 -2015.43 0.05 
7105 1 -1.48479 -0.376027 6.50474 0 0 0 154.374 -258.265 -90828.2 -0.113606 115.127 -39.8079 15953.6 -388.134 9770.12 0.05 
3780 1 -0.874136 -0.0774453 6.52793 0 0 0 214.749 -236.551 -90065.6 0 0.202424 -39.8079 10985.2 15940 -3369.77 0.05 
6232 1 -3.38378 -0.5894 6.54913 0 0 0 598.013 593.142 -89029.1 27489.2 8705.26 -39.8079 -27584.8 35113.1 -8282.62 0.05 
11247 1 -2.37081 -0.0794463 6.5544 0 0 0 281.584 -280.537 -89138.6 -0.78094 0.219281 -39.8079 20176.5 16917.6 2779.55 0.05 
8380 1 -0.566137 -0.683417 6.59962 0 0 0 156.055 461.907 -88010.4 0 118363 -39.8079 -75.1218 -1963.71 6907.18 0.05 
11812 1 -2.01866 -0.410313 6.63938 0 0 0 8.26129 65.9611 -86739.4 -0.328925 211.938 -39.8079 -10600.1 -24162.6 9882.96 0.05 
13755 1 -0.903053 -0.278768 6.67746 0 0 0 3.04535 472.909 -85593.1 0 21.441 -39.8079 -25575.7 30462.9 -6314.97 0.05 
4329 1 -2.28481 0.242499 6.6826 0 0 0 436.396 -111.317 -84885.3 -0.624632 -11.3012 -39.8079 -2387.67 -15375.5 689.759 0.05 
1210 1 -0.287026 0.251939 6.65397 0 0 0 0.254153 226.035 -86541 0 -13.3824 -39.8079 28407.2 -2975.74 -16011.4 0.05 
11916 1 -1.8628 0.437897 6.67907 0 0 0 70.8084 -59.1584 -85731.7 -0.234415 -351.702 -39.8079 21488.1 5883.66 -749.099 0.05 
11567 1 -2.34674 0.662975 6.65835 0 0 0 176.814 -583.285 -85965.3 -0.733152 -63235.8 -39.8079 1786.99 -21168.7 -7103.01 0.05 
13012 1 -1.05351 -0.637592 6.71525 0 0 0 394.42 185 -84787.3 0 30530.7 -39.8079 21567.3 -6382.23 -849.642 0.05 
9416 1 -3.55815 0.0584238 6.69405 0 0 0 858.12 -10.5578 -85264.2 1.77595e+07 -0.0844686 -39.8079 -16972.8 -56184.6 4454.39 0.05 
13282 1 -3.2184 0.441151 6.70103 0 0 0 370.897 -563.586 -84482.6 628.249 -373.776 -39.8079 20389 -43565.5 -11889.1 0.05 
8433 1 -1.98877 -0.116223 6.78906 0 0 0 90.5099 -85.5952 -82741.8 -0.307611 0.743421 -39.8079 -27629.9 -1613.83 63.4766 0.05 
11564 1 -3.51595 0.474092 6.75669 0 0 0 318.227 85562.4 -82607.4 2.43166e+06 -702.852 -39.8079 261.991 23243.1 7058.2 0.05 
13957 1 -0.598617 -0.806682 6.82026 0 0 0 -0.438965 642.823 -81583.4 0 1.64589e+07 -39.8079 59375.1 20431 -1552.29 0.05 
3281 1 -1.80523 -0.500669 6.82782 0 0 0 79.8529 308.958 -80747.1 -0.208175 1197.67 -39.8079 26017.5 -1559.52 -5358.65 0.05 
9961 1 -3.54163 -0.451372 6.81759 0 0 0 477.586 185.325 -80410.8 7.77537e+06 453.272 -39.8079 31142.8 -24806.9 -9770.97 0.05 
12325 1 -2.51431 -0.290323 6.81053 0 0 0 567.319 149.826 -81643.2 -1.14215 26.1929 -39.8079 3195.34 13151 3670.74 0.05 
12952 1 -2.76276 -0.218078 6.80827 0 0 0 194.592 498.246 -81769.9 -1.79369 7.21622 -39.8079 -5596.16 13792.8 -4217.11 0.05 
7835 1 -1.02375 -0.110372 6.87204 0 0 0 265.872 325.825 -79933.1 0 0.627404 -39.8079 -18124.5 -28720.3 5095.93 0.05 
13010 1 -2.89305 0.483542 6.89559 0 0 0 451.052 282.258 -78615.9 0.0555681 -847.277 -39.8079 11212.3 -23202.4 2727.87 0.05 
11203 1 -0.298632 0.769504 6.88547 0 0 0 59.4273 43.6825 -78279 0 -2.83391e+06 -39.8079 -16840.2 -19091.4 7106.99 0.05 
6997 1 -1.25699 -0.808589 6.93858 0 0 0 7.4337 2002.64 -77927.2 8.62456e+06 3.53418e+07 4.13366e+08 104105 -3676.8 10768.2 0.05 
5927 1 -0.693443 -0.742487 6.91982 0 0 0 0.918188 4255.25 -78597.4 -3.88061e+06 -1.39915e+07 4.45761e+08 45691.6 -560.21 2432.16 0.05 
14013 1 -3.30284 -0.818003 7.00186 0 0 0 3.42423 1578.04 1.02984 1.64643e+06 2.25243e+07 546435 -860.922 4.9988 3513.72 0.05 
196 1 -3.09803 -0.81048 7.00968 0 0 0 0.396962 2006.51 -169.449 190397 1.25515e+07 -85297.6 -11406.8 464.937 2245.39 0.05 
12327 1 -1.10086 -0.81428 7.00053 0 0 0 0.986875 718.076 1.2207 357665 2.16983e+07 -241005 -5546.78 61.9397 3939.1 0.05 
6695 1 -0.781353 -0.817513 7.00085 0 0 0 -0.166041 1030.48 -1.95019 -64877 2.90682e+07 -78150.2 -1104.51 -2.02002 291.159 0.05 
13221 1 -0.460266 -0.819912 6.99721 0 0 0 1.3955 1015.75 -268.381 287239 2.58117e+07 1.43795e+06 -9155.97 -3292.48 -634.587 0.05 
9943 1 -2.92998 -0.76386 7.00815 0 0 0 136.698 526.677 -561.771 -4.17704e+06 1.468e+07 -1.23156e+06 -1013.08 12463.1 -1906.42 0.05 
13855 1 -1.762 -0.754473 7.00235 0 0 0 38.2507 284.57 -76.8015 -430892 5.07133e+06 1.57302e+06 -3278.45 3716.44 -5566.89 0.05 
12243 1 -0.703573 -0.748603 7.00081 0 0 0 79.1151 319.005 -313.932 3.88061e+06 1.6116e+07 -4.45761e+08 -5932.8 2182.71 -7842.07 0.05 
11028 1 -0.585258 -0.764272 6.99932 0 0 0 -0.338844 245.427 -392.225 -31368.4 2.21632e+06 -745322 -3574.76 -588.506 4978.25 0.05 
5466 1 -0.115582 -0.780781 7.00546 0 0 0 -2.17751 414.655 -135.715 9.96247e+06 3.84178e+08 8.05819e+06 -10456.3 -3152.62 -5194.39 0.05 
10082 1 -0.0747145 -0.740068 7.00155 0 0 0 -0.853897 55884.2 -30.0839 -2.94876e+07 -1.00752e+09 -2.85979e+08 -61040.7 -1288.49 -32100 0.05 
13426 1 -3.28361 -0.733024 7.0083 0 0 0 229.393 183.495 0.048133 -1.40165e+06 7.8501e+06 -461556 -1145.97 3587.89 -142.884 0.05 
9896 1 -3.06426 -0.701859 7.00868 0 0 0 310.488 215.695 -235.093 38.6204 215878 -39.8079 -559.755 -954.382 -3468.77 0.05 
12277 1 -2.53253 -0.704474 6.95499 0 0 0 323.849 565.282 -76823.1 2.06931e+07 -3.09281e+06 4.54276e+08 5870.34 -16764.8 -7976.61 0.05 
11386 1 -2.47946 -0.715443 7.00504 0 0 0 285.64 260.678 -387.451 -2.06931e+07 3.67286e+06 -4.54276e+08 598.67 2537.74 -805.148 0.05 
11448 1 -3.34999 -0.659105 7.00466 0 0 0 340.891 31.9586 -159.523 1.7748e+07 4.10954e+07 -1.40272e+06 -5625.2 -1988.56 -346.662 0.05 
9043 1 -2.27514 -0.66227 7.00111 0 0 0 336.617 0.681161 -4.9476 -0.609407 61926.5 -39.8079 234.082 1460.24 -132.83 0.05 
9387 1 -1.88309 -0.632657 6.99943 0 0 0 362.588 410.218 -203.909 -0.244627 26655.6 -39.8079 -10148.1 -3104.27 4983.85 0.05 
13214 1 -1.7002 -0.639487 7.00732 0 0 0 338.368 265.31 -157.153 -40088.3 271732 -185314 1732.1 2166.31 6029.85 0.05 
13698 1 -0.543209 -0.633395 6.99967 0 0 0 359.712 284.361 -237.989 0 27199.2 -39.8079 960.927 -101.899 2776.2 0.05 
3539 1 -0.256542 -0.677449 6.98436 0 0 0 230.33 252.978 -76802.9 -1.13391e+07 -7.4257e+06 8.63731e+08 -27728.2 7482.75 7372.53 0.05 
7469 1 -0.105067 -0.651915 6.98321 0 0 0 2.67011 -5.33339 -76417.8 5.23211e+06 2.24741e+08 1.02317e+09 1741.33 -4439.8 -3601.74 0.05 
3890 1 -3.45259 -0.604558 7.00341 0 0 0 445.117 1.90698 -183.16 221225 12711.4 -39.8079 -1069.1 10032.3 850.346 0.05 
14036 1 -2.37033 -0.626592 7.00004 0 0 0 394.27 174.703 -77.2312 -0.779956 22615.4 -39.8079 -5492.48 5111.42 -5038.93 0.05 
13329 1 -1.32666 -0.593809 7.00407 0 0 0 430.604 256.351 -0.00470195 -0.0868173 9704.97 -39.8079 -1941.81 4204.42 -4716.37 0.05 
5912 1 -0.353968 -0.597059 7.0015 0 0 0 423.932 404.695 -11.2659 -7.15543e+06 -4.17679e+06 -2.84179e+08 -7376.76 4938.86 2977.93 0.05 
11316 1 -2.81009 -0.55681 7.00164 0 0 0 287.696 210.022 -3.93191 -1.61386 4027.43 -39.8079 -3944.5 4585.05 -5793.04 0.05 
11479 1 -2.45679 -0.533955 7.00128 0 0 0 301.032 220.28 -309.792 1.47507e+06 238133 -124706 -3227.91 -6335.57 6492.53 0.05 
7434 1 -1.82334 -0.530513 7.00785 0 0 0 27.5336 10393.4 -243.812 1.3111e+06 -1.44454e+08 -1.64909e+06 -330.738 2593.61 385.314 0.05 
3581 1 -1.74043 -0.535682 7.01017 0 0 0 308.966 204.34 -385.474 -1.51621e+06 5.34724e+07 -215619 -9042.59 2397.16 4599.35 0.05 
12594 1 -0.812606 -0.548046 7.00673 0 0 0 300.297 283.162 -112.458 -2.18009e+07 -3.11434e+06 -5.75202e+08 11.9432 5176.55 4659.07 0.05 
10556 1 -0.707356 -0.538639 7.00885 0 0 0 307.912 341.755 -174.19 8.15796e+06 -3.10538e+06 -3.20755e+08 951.577 2237.25 -3349.56 0.05 
9307 1 -0.258239 -0.531465 7.00184 0 0 0 291.333 390.697 -104.415 3.03045e+06 2.11078e+07 -5.39628e+08 1805.44 4257.31 997.896 0.05 
12205 1 -3.11908 -0.503182 7.00328 0 0 0 227.551 80.4787 -78.8967 -557506 -160283 -921937 -4878.27 2278.77 4627.66 0.05 
7966 1 -2.02055 -0.517983 7.00053 0 0 0 271.21 261.387 -1.145 -0.330328 1717.36 -39.8079 -5905.43 4623.78 3846.23 0.05 
10984 1 -1.50162 -0.505583 6.99898 0 0 0 246.212 24.7439 -391.697 -375331 325446 122066 -230.443 4298.24 4508.46 0.05 
13525 1 -1.37077 -0.488831 7.00886 0 0 0 216.696 324.341 -54.8494 -1.03986e+06 -527442 -307226 -3507.88 1948.06 4168.99 0.05 
5517 1 -3.40692 -0.433813 6.99996 0 0 0 6943.35 -2.52067 -1.2665 -3.00553e+07 527581 229042 18.9798 -5594.23 3771.02 0.05 
6295 1 -3.22219 -0.470986 7.00604 0 0 0 127.987 325.597 -202 676.559 661.36 -39.8079 -7466.71 412.582 5921.79 0.05 
13644 1 -2.15722 -0.467868 6.99955 0 0 0 111.522 -275.034 -157.621 8.4465e+06 -3.89319e+08 3.66886e+06 8960.74 -304.812 -482.657 0.05 
7418 1 -1.68383 -0.448658 6.99681 0 0 0 0.890269 278.433 -264.707 -0.163763 430.538 -39.8079 181.889 -2164.34 1394.11 0.05 
3483 1 -0.638599 -0.470597 7.00938 0 0 0 132.767 132.305 -3.77825 795422 667620 -1.47647e+06 -4413.13 1614.46 2247.81 0.05 
6072 1 -3.06717 -0.415126 7.00505 0 0 0 2.55249 64.5112 -100.274 696614 6521.52 62438.2 -390.3 -4257.51 1274.4 0.05 
11339 1 -2.07378 -0.371326 7.00363 0 0 0 3.50511 -49.7014 -312.078 -0.37316 106.023 -39.8079 842.931 689.636 10680.7 0.05 
12492 1 -1.42302 -0.401771 7.00549 0 0 0 0.290928 283.972 -444.797 -0.10206 181.726 -39.8079 -5414.35 134.491 4899.75 0.05 
2539 1 -1.1615 -0.40778 7.0089 0 0 0 3.58895 54.5282 -1.07712 4.2956e+06 7.57456e+07 -1.7527e+06 -511.07 0.172072 -1692.48 0.05 
6261 1 -0.775936 -0.370685 6.99579 0 0 0 0.281684 336.86 -308.997 0 104.841 -39.8079 -2696.97 3748.79 -391.03 0.05 
11157 1 -0.354937 -0.410013 7.00165 0 0 0 -0.363799 253.589 -0.0298849 0 210.793 -39.8079 -2619.93 -3.18921 5536.32 0.05 
12860 1 -0.240005 -0.406424 7.00328 0 0 0 3.68107 348.577 -0.849134 0 197.575 -39.8079 1564.86 35.3633 -1080.75 0.05 
3298 1 -2.40054 -0.349551 7.00488 0 0 0 65.2207 251.122 -207.485 -0.844731 72.6064 -39.8079 -7407.33 4969.75 -8391.18 0.05 
13080 1 -1.62861 -0.325245 7.00379 0 0 0 197.143 174.826 -0.755938 -0.147478 47.7651 -39.8079 -1215.14 1294.46 -11191.4 0.05 
11927 1 -1.26281 -0.327998 7.00105 0 0 0 190.333 0.469147 -2.48982 -0.0782614 50.0793 -39.8079 401.525 1441.54 -6199.21 0.05 
11626 1 -3.32804 -0.292569 7.00821 0 0 0 303.058 -0.212871 -265.272 6612.23 27.229 -39.8079 4436.21 -2902.13 -4277.21 0.05 
246 1 -1.97463 -0.305481 7.00776 0 0 0 260.68 227.106 -0.510902 -0.298114 34.0113 -39.8079 -4401.5 1334.13 -10537.5 0.05 
13413 1 -0.751346 -0.270945 7.00789 0 0 0 2.50142 314.869 -73.4701 363163 878262 -23435 3098.83 92.6872 -3978.56 0.05 
13443 1 -2.6221 -0.233237 7.00309 0 0 0 313.393 306.637 -303.102 -1.49354 9.55351 -39.8079 -9285.9 -1777.63 1566.2 0.05 
4622 1 -1.81938 -0.214195 7.01012 0 0 0 247.524 -333.481 -1.49581 -0.214272 6.70706 -39.8079 1618.76 921.204 5554.22 0.05 
11055 1 -1.58465 -0.22315 7.0086 0 0 0 284.437 77.1732 -126 -0.135933 7.93337 -39.8079 -3994.61 5233.94 1669.15 0.05 
9031 1 -1.07427 -0.254876 7.00495 0 0 0 334.719 288.98 -1.45955 0 14.0992 -39.8079 -2048.04 1858.17 5458.71 0.05 
8291 1 -0.433876 -0.221404 7.00896 0 0 0 0.00448001 -99.1515 -243.322 -2.05855e+06 -1.93361e+08 -4.69417e+06 -1156.91 -5947.79 1685.21 0.05 
10863 1 -3.49028 -0.176253 7.00221 0 0 0 4450.5 -7.13723 -474.97 -2.75062e+07 -1.2777e+06 -340914 -6552.18 258.873 5926.02 0.05 
11894 1 -3.17275 -0.176228 7.00153 0 0 0 96.5213 7.33463 -4.32082 28332.8 2.21798e+06 -1.17805e+06 -162.552 621.14 3862.19 0.05 
12122 1 -0.561738 -0.187672 6.99581 0 0 0 -0.486486 -280.04 -438.813 0 3.99432 -39.8079 1571.51 2273.6 -4490.38 0.05 
13658 1 -0.159219 -0.167443 6.99709 0 0 0 -0.102307 -114.722 -340.811 67467.4 46439.1 -72422.1 5126.17 -2453.83 -4776.19 0.05 
12127 1 -2.82774 -0.110403 7.00587 0 0 0 0.4478 -16.5382 -171.286 1.18546e+07 1.21766e+06 -2.76038e+08 -383.456 6985.99 -688.311 0.05 
10018 1 -2.7459 -0.12431 6.95688 0 0 0 265.399 264.764 -77509.6 -1.18546e+07 -1.21766e+06 2.76038e+08 -8321.9 -4753.16 -8283.48 0.05 
7242 1 -1.01374 -0.15731 7.00477 0 0 0 2.10499 301.785 -440.675 0 2.08996 -39.8079 -4537.36 4110.27 -3968.13 0.05 
6839 1 -2.9355 -0.0586463 7.00059 0 0 0 91.9204 286.016 -1.03181 2.5217 0.0854615 -39.8079 -1689.84 3566.96 -6522.54 0.05 
8449 1 -2.52408 -0.0609433 7.01005 0 0 0 162.583 75.4719 -328.923 -1.1717 0.0961919 -39.8079 -2773.26 8870.92 -262.636 0.05 
9952 1 -1.2745 -0.0749056 7.00529 0 0 0 84.0763 1.56742 -1.39534 -0.0797465 0.182376 -39.8079 475.418 3136.13 -2102.83 0.05 
13065 1 -0.446419 -0.0723014 7.00082 0 0 0 60.1186 -390.178 -1.95418 0 0.163318 -39.8079 5055.88 2363.08 -659.839 0.05 
11753 1 -2.68248 -0.00675523 7.0036 0 0 0 156.367 146.24 -134.883 3.80423e+06 -1.60269e+08 4.29973e+06 4244.94 1704.19 -891.728 0.05 
13038 1 -2.38243 -0.044336 7.00876 0 0 0 162.508 62.7221 -292.089 -307183 110000 -117529 5962.48 7018.13 -3807.69 0.05 
9721 1 -2.21199 -0.0452478 7.00071 0 0 0 123.04 -81.2094 0.109588 -0.519951 0.0386545 -39.8079 1015.05 4811.97 -4938.27 0.05 
11177 1 -1.65756 -0.0154831 7.00035 0 0 0 140.867 260.725 -199.047 -1.32405e+06 -432619 -420764 -3992.77 11847.7 -1643.77 0.05 
10773 1 -0.272571 -0.0401678 7.0001 0 0 0 126.001 218.709 -136.875 0 0.0269138 -39.8079 4214.1 7977.33 -7016.14 0.05 
9438 1 -3.48154 0.0215905 7.00317 0 0 0 4653.19 -63.0778 -167.769 -6.52559e+07 -436217 274869 -1024.93 -6029.76 -1546.35 0.05 
1680 1 -1.26647 0.0350733 7.00736 0 0 0 201.563 75596.5 -238.937 126968 -7.65213e+08 -3.00265e+06 -25558.7 4216.96 -8329.77 0.05 
1157 1 -1.05226 0.0222036 7.00782 0 0 0 115.072 300.405 -1.05652 9.66212e+06 7.64701e+08 6.43723e+06 -1656.08 4161.02 4048.76 0.05 
2032 1 -0.422473 0.048035 6.99849 0 0 0 1.15672 -302.125 -333.327 0 -0.0463792 -39.8079 5672.86 1259.79 -199.496 0.05 
5587 1 -2.27429 0.05819 7.00786 0 0 0 49.0162 -59.54 -96.9946 317587 -1.25848e+08 -4.1884e+06 1925.55 5922.08 -1849.5 0.05 
4228 1 -2.03741 0.088059 7.00415 0 0 0 119.611 -87.8968 -1.67868 -0.343213 -0.303399 -39.8079 1024.1 4523.61 4066.53 0.05 
5683 1 -1.90234 0.0565384 7.00453 0 0 0 28.0174 -107.93 -0.400957 1.01419e+06 -94335 23224.2 847.636 995.544 -5147.64 0.05 
9104 1 -0.713506 0.0641026 7.00888 0 0 0 90.709 203.865 -194.339 -754236 219952 1.47544e+06 3382.44 8608.44 -9041.77 0.05 
11421 1 -3.48443 0.154563 7.00278 0 0 0 4583.72 65.2358 -181.65 -2.70209e+07 440117 -817648 -1604.68 -2546.21 2140.43 0.05 
1592 1 -1.43773 0.120224 7.00584 0 0 0 175.404 187.122 -225.648 -0.104671 -0.831566 -39.8079 -2198.6 63.7717 3932.12 0.05 
8636 1 -0.448394 0.155217 7.00615 0 0 0 120.445 -413.901 -0.683953 0 -1.99295 -39.8079 4452.07 4363.29 3557.15 0.05 
3720 1 -0.321173 0.116929 7.00092 0 0 0 143.364 313.586 -1.43714 0 -0.758423 -39.8079 -3241.05 5521.36 1523.92 0.05 
11518 1 -3.24936 0.184104 7.00076 0 0 0 3.89417 -225.388 -229.923 1165.32 -3.71446 -39.8079 -2998.39 -2600.31 5901.16 0.05 
8568 1 -3.02179 0.186605 7.00797 0 0 0 1.94803 -311.359 -0.183433 17.9482 -3.90879 -39.8079 3638.85 36.8077 3548.09 0.05 
11832 1 -2.59853 0.186409 7.0021 0 0 0 4.56071 99.0722 -2.75079 -1.41364 -3.8933 -39.8079 -3087.6 77.6596 2571.15 0.05 
11037 1 -1.5822 0.169857 7.00101 0 0 0 73.8741 40.2106 -118.72 -0.135323 -2.75541 -39.8079 -1760.1 3769.79 26.9101 0.05 
5472 1 -1.06038 0.185045 7.00205 0 0 0 -0.631901 9.24257 -0.594001 -1.08503e+07 6.07055e+08 -8.28952e+06 -106.547 0.209924 79.1223 0.05 
13760 1 -3.56884 0.253 6.99886 0 0 0 1557.58 -24.8217 -414.487 2.07877e+07 -741439 -12603.8 4463.21 10006.4 4332.7 0.05 
10467 1 -3.39073 0.224179 7.00623 0 0 0 42.9549 -84.415 -1.34335 3.21031e+07 269741 -650994 867.618 1734.04 -3768.94 0.05 
3741 1 -1.25446 0.221586 7.0102 0 0 0 0.444528 -331.801 -0.221814 -0.0772222 -7.70568 -39.8079 -7.20369 -1.50365 1997.48 0.05 
13514 1 -0.206695 0.248152 7.00821 0 0 0 -0.268736 -109.382 -371.923 0 -12.508 -39.8079 8674.87 -3883.3 1778.3 0.05 
12444 1 -0.778851 0.282299 7.00628 0 0 0 3.5714 132043 -162.693 1.28983e+07 -9.20252e+08 -818504 41332.2 -2156.26 -13770.7 0.05 
6836 1 -0.737036 0.27499 7.00142 0 0 0 4.59793 -55.2799 -288.506 -1.30717e+07 9.20471e+08 384126 2865.5 4868.94 3040.3 0.05 
5181 1 -3.30891 0.34285 7.00141 0 0 0 340.186 -308.945 -1.13248 4225.14 -64.6717 -39.8079 3858.65 5791.69 -7304.2 0.05 
5457 1 -2.82827 0.322914 7.00427 0 0 0 219.112 0.624021 -65.9054 -1.44518 -45.8894 -39.8079 -2818.02 6535.62 -4939.71 0.05 
4861 1 -2.72061 0.353593 7.00833 0 0 0 390.331 172.774 -189.603 -1.77357 -77.8673 -39.8079 3405.24 3024.8 -9268.54 0.05 
9264 1 -2.5861 0.318564 7.01009 0 0 0 196.813 142.025 -3.09358 -1.37173 -42.5858 -39.8079 -3512.97 5306.22 -2956.01 0.05 
7879 1 -2.46982 0.352439 7.01008 0 0 0 383.378 -216.561 -1.11917 -1.01545 -76.3263 -39.8079 5422.11 5582.54 -9211.98 0.05 
13743 1 -2.13579 0.354327 6.99893 0 0 0 354.843 -305.044 -240.58 -0.431865 -78.8646 -39.8079 8948.85 2256.48 -7214.97 0.05 
12717 1 -1.96237 0.365547 7.00123 0 0 0 380.701 15.2802 -3.05596 -5.61469e+06 2.00475e+08 2.07413e+06 -242.049 5439.61 -4051.99 0.05 
5648 1 -1.35434 0.329119 7.00355 0 0 0 76.9991 -102.992 -4.24175 1.56248e+07 -4.38663e+08 -1.74508e+07 4415.83 -64.5331 -10469.9 0.05 