ITEM: TIMESTEP
390000
ITEM: NUMBER OF ATOMS
14052
ITEM: BOX BOUNDS ff pp ff
-3.75 3.75
-1 1
0 10
ITEM: ATOMS id type x y z ix iy iz vx vy vz fx fy fz omegax omegay omegaz radius 
13821 1 -1.59504 -0.509649 3.16994 0 0 0 0.275183 105.581 -171857 -0.138557 1441.84 -39.8079 4511.3 3783.37 -2558.63 0.05 
9412 1 -2.15412 -0.351502 3.16158 0 0 0 1.89464 14.6515 -171840 -0.451308 75.0993 -39.8079 -9278.38 13846.1 5701.27 0.05 
10206 1 -3.22259 0.648535 3.21782 0 0 0 223.627 -338.502 -170107 681.828 -41525.1 -39.8079 5136.14 -10974 -8981.36 0.05 
12795 1 -2.98099 -0.319566 3.2804 0 0 0 496.068 -76.1834 -168732 8.01289 43.3245 -39.8079 -10403.9 3184.62 3882.04 0.05 
13215 1 -0.227492 -0.0973844 3.26456 0 0 0 -0.415757 615.338 -169069 0 0.418271 -39.8079 56.5582 22216.6 -6775.57 0.05 
7183 1 -0.750535 -0.358155 3.3601 0 0 0 -0.775491 310.248 -166448 0 84.2794 -39.8079 -12783.2 -9045.73 -4366.71 0.05 
4371 1 -1.71272 0.396497 3.33859 0 0 0 0.978136 -152.086 -167037 -0.173173 -165.366 -39.8079 17513.9 -2599.57 17.1685 0.05 
11397 1 -0.430411 0.754906 3.35063 0 0 0 0.381765 50.6036 -166689 0 -1.53329e+06 -39.8079 9019.46 16450.5 -5556.43 0.05 
13017 1 -1.48729 -0.788474 3.48591 0 0 0 0.909248 594.877 -163153 -0.114106 6.69024e+06 -39.8079 -24189.3 -7438.98 3021.17 0.05 
12202 1 -1.69684 -0.492401 3.44443 0 0 0 179.822 82.5033 -164076 -0.167921 1012.14 -39.8079 9591.61 11592.2 3632.57 0.05 
10576 1 -3.26688 0.233661 3.44126 0 0 0 288.585 -171.664 -164748 1677.22 -9.62786 -39.8079 -34639.3 13625.1 1203.32 0.05 
8448 1 -0.483472 -0.795865 3.60748 0 0 0 0.508839 367.951 -159922 0 9.54824e+06 -39.8079 -5624.8 -12451.1 599.922 0.05 
11202 1 -0.848803 0.253216 3.63885 0 0 0 123.447 238.648 -159224 0 -13.6898 -39.8079 -9912.06 27218.7 2176.75 0.05 
13635 1 -1.11896 0.673609 3.62117 0 0 0 1.12983 -249.086 -159669 0 -87193.5 -39.8079 23219.4 1106.72 3265.97 0.05 
11049 1 -2.64759 -0.218537 3.6983 0 0 0 133.741 -5.57848 -157302 -1.57853 7.27863 -39.8079 18.8217 -15907.8 3665.63 0.05 
9405 1 -1.49246 0.138353 3.70565 0 0 0 152.194 300.962 -157447 -0.11515 -1.33526 -39.8079 -12606.9 -4243.76 -2423.02 0.05 
12319 1 -0.0529354 0.161819 3.70276 0 0 0 -0.207636 85.6351 -158386 0 -2.31197 -39.8079 -4133.99 98548.8 -3973.59 0.05 
11924 1 -1.4842 0.491345 3.7643 0 0 0 -0.0764035 132476 -156147 -0.113487 -990.794 -39.8079 -6970.43 -4104.63 9276.99 0.05 
13254 1 -1.96443 0.529509 3.76699 0 0 0 -0.150737 27.6374 -155765 -0.291485 -2197.03 -39.8079 -7367.64 -23625.4 3565.41 0.05 
12761 1 -0.541563 0.527395 3.75087 0 0 0 0.273628 -327.096 -156298 0 -2099.13 -39.8079 16792.2 -12762.6 -880.602 0.05 
11242 1 -1.16453 0.576859 3.80501 0 0 0 -0.0422323 -200.728 -155175 0 -6428.14 -39.8079 11388 -13157.8 4496.39 0.05 
8681 1 -0.510993 0.814957 3.84833 0 0 0 -0.925695 -824.352 -153783 0 -2.54919e+07 -39.8079 -50699.1 11980.1 1235.89 0.05 
12566 1 -1.89793 0.270074 3.87224 0 0 0 77.5525 -317.074 -153211 -0.252442 -18.4256 -39.8079 -16700 2013.15 5382.68 0.05 
12900 1 -3.48533 0.796565 3.88472 0 0 0 312.098 -546.74 -151839 710697 -9.88194e+06 -39.8079 -23920.6 40304.7 -3110.64 0.05 
12455 1 -2.35562 -0.306722 4.04185 0 0 0 1.67213 168.304 -148866 -0.750395 34.745 -39.8079 7925.15 12355.5 -4376.61 0.05 
4032 1 -1.64333 0.24714 4.03752 0 0 0 0.993796 310.862 -148998 -0.151616 -12.2836 -39.8079 9126.22 20299.1 3259.07 0.05 
7677 1 -1.36622 0.535524 4.04274 0 0 0 -0.253297 -136.766 -149126 -0.0927065 -2503.8 -39.8079 -7104.88 7447.28 662.835 0.05 
10609 1 -1.77684 -0.322787 4.0896 0 0 0 1.51252 -165.219 -147349 -0.196569 45.7897 -39.8079 27672.1 -1753.56 3676.46 0.05 
11415 1 -0.875088 0.815171 4.06413 0 0 0 238.893 -982.178 -148344 0 -2.57892e+07 -39.8079 -96357.5 -10605.3 1405.99 0.05 
8255 1 -3.29153 -0.428015 4.11724 0 0 0 175.982 68.466 -146740 2856.85 292.794 -39.8079 -29492.7 -11449 4606.84 0.05 
13781 1 -2.52447 -0.000973276 4.21605 0 0 0 31.3856 1.24119 -144580 -1.1729 3.7616e-07 -39.8079 5489.15 -18032.1 -657.816 0.05 
6492 1 -1.69685 0.756209 4.25826 0 0 0 110.525 -201.605 -142339 -0.167923 -1.61727e+06 -39.8079 16696.9 -12891.1 2389.16 0.05 
12363 1 -3.14767 -0.412458 4.29521 0 0 0 355.596 239.597 -142172 168.107 220.33 -39.8079 8225.56 -3555.31 5490.18 0.05 
7639 1 -0.954675 -0.191337 4.29986 0 0 0 -1.0914 165.7 -141912 0 4.30025 -39.8079 15457.6 21674 1082.4 0.05 
9165 1 -2.43604 -0.768815 4.32564 0 0 0 69.1415 64.4472 -141097 -0.928215 2.75055e+06 -39.8079 -44682.4 13410.2 -3042.24 0.05 
6487 1 -3.35421 -0.323112 4.31988 0 0 0 396.85 223.839 -141599 12600.4 46.0465 -39.8079 12836.7 -22377.9 -7704.65 0.05 
13278 1 -2.04257 0.801116 4.36395 0 0 0 147.39 -1203.06 -140221 -0.347278 -1.23915e+07 -39.8079 -69159.6 7820.31 8625.9 0.05 
11852 1 -2.18318 -0.535825 4.41427 0 0 0 209.781 264.789 -138928 -0.484331 2520.34 -39.8079 11897.3 19456.2 984.161 0.05 
10766 1 -2.77358 0.0175928 4.40878 0 0 0 274.323 -645.343 -139270 -1.77706 -0.00222912 -39.8079 -41199.7 -4787.51 941.861 0.05 
3777 1 -2.73569 -0.92544 4.45818 0 0 0 477.102 -35413.7 -137498 -1.7932 2.26017e+11 -39.8079 2511.96 -4716.12 -2155.11 0.05 
11713 1 -2.15157 -0.258113 4.46992 0 0 0 187.819 -811.193 -137639 -0.448546 14.9313 -39.8079 12852.1 -8865.71 6541.5 0.05 
12207 1 -0.638597 0.239754 4.42606 0 0 0 -0.261889 -17318 -139063 0 -10.755 -39.8079 -20262.1 -18969.9 601.985 0.05 
9454 1 -2.46696 -0.120122 4.47188 0 0 0 23.8613 148.175 -137789 -1.00776 0.829218 -39.8079 8704.99 5585.32 2765.96 0.05 
3037 1 -0.655562 0.0306578 4.56004 0 0 0 51.9572 -3.79083 -135437 0 -0.0118784 -39.8079 -3964.81 -4136.05 3439.81 0.05 
9289 1 -0.14284 0.317583 4.58634 0 0 0 1.1644 -131.287 -134108 0 -41.8735 -39.8079 -3624.17 -6460.88 4435.75 0.05 
10622 1 -2.53013 -0.515495 4.63941 0 0 0 149.526 3.09594 -132670 -1.19033 1629.57 -39.8079 -19546.9 30099.5 -1973.68 0.05 
9291 1 -0.582906 -0.164485 4.67366 0 0 0 0.867404 -55.9492 -132285 0 2.45205 -39.8079 9808.39 -21308.2 -682.456 0.05 
1298 1 -2.31926 -0.551915 4.7432 0 0 0 79.3297 274.926 -130642 -0.682556 3603.78 -39.8079 5833.24 8835.42 -5717.94 0.05 
6601 1 -3.06543 -0.239298 4.74241 0 0 0 222.059 156.804 -130485 39.4319 10.6666 -39.8079 1511.83 7088.19 3380.35 0.05 
8417 1 -2.52956 -0.174704 4.75666 0 0 0 9.37303 66461.2 -129879 -1.18856 3.05516 -39.8079 7807.19 -6700.52 1209.71 0.05 
11208 1 -0.922927 0.315457 4.87095 0 0 0 -0.489781 -313.998 -127289 0 -40.3724 -39.8079 -18203.6 16205.6 -2992.52 0.05 
10028 1 -3.44338 0.693487 4.86278 0 0 0 386.959 -271.805 -126502 163010 -163601 -39.8079 44558.4 21410.1 2807.04 0.05 
11214 1 -1.90773 0.804486 4.91164 0 0 0 194.512 -979.978 -125393 -0.257778 -1.47009e+07 -39.8079 -70915.1 587.244 -4847.1 0.05 
2112 1 -1.37364 -0.397281 4.97396 0 0 0 111.049 -54.5442 -124158 -0.0938658 167.695 -39.8079 1233.91 1872.77 1305.06 0.05 
206 1 -2.29045 -0.760253 5.02189 0 0 0 83.4541 69.7688 -122356 -0.633714 1.91183e+06 -39.8079 -18401.5 -18084.4 1061.65 0.05 
13478 1 -2.78743 0.407543 5.06698 0 0 0 449.637 -45.6362 -121456 -1.73719 -201.6 -39.8079 -10129.5 -26863.5 2476.92 0.05 
4730 1 -2.34722 0.570209 5.0793 0 0 0 334.723 -235.068 -121644 -0.734077 -5492.16 -39.8079 20948.1 -7961.38 -4366.16 0.05 
8660 1 -2.89451 -0.778462 5.11923 0 0 0 534.999 450.308 -119849 0.114265 4.21275e+06 -39.8079 14477.5 -14760.4 -8301.81 0.05 
12559 1 -2.37609 -0.77199 5.13114 0 0 0 32464 47.2801 -119774 -0.791886 3.15855e+06 -39.8079 -43723.8 -25383.5 -13862.8 0.05 
9911 1 -2.30372 -0.19246 5.10156 0 0 0 90.3066 -152.24 -121287 -0.655692 4.39797 -39.8079 -9458.35 6156.14 792.257 0.05 
13047 1 -1.47139 -0.503963 5.18073 0 0 0 2.72496 121.491 -118930 -0.110968 1281.59 -39.8079 -5261.26 -2525.86 1985.84 0.05 
4350 1 -1.93909 -0.590665 5.2081 0 0 0 93.4383 630.486 -117650 -0.275789 8980.11 -39.8079 -12400.1 -42919.9 4136.68 0.05 
3659 1 -1.15941 -0.607849 5.22674 0 0 0 5.16334 430.75 -117801 0 13826.1 -39.8079 2733.13 11103 -565.496 0.05 
9947 1 -0.48449 -0.209709 5.21857 0 0 0 0.987894 -342.507 -117774 0 6.15859 -39.8079 -10103.5 12433.8 10082.9 0.05 
7680 1 -0.230754 0.660163 5.20778 0 0 0 -0.0890154 3.33818 -117826 0 -58183.1 -39.8079 -7670.81 -7350.76 -6526.56 0.05 
12040 1 -3.18935 0.0917301 5.32992 0 0 0 471.714 -356.738 -114849 360.683 -0.345457 -39.8079 15089.1 17082 -86.3417 0.05 
11268 1 -1.93231 -0.198364 5.36125 0 0 0 1.76208 -81.2142 -114222 -0.271767 4.94352 -39.8079 29864.8 -3618.73 -685.673 0.05 
7591 1 -0.677 0.715557 5.388 0 0 0 -0.00815119 67.7756 -113236 0 -345668 -39.8079 14341 -7770.88 7549.9 0.05 
12192 1 -0.206428 0.17921 5.43759 0 0 0 2.37786 -93.6073 -112466 0 -3.35772 -39.8079 19408.4 -524.192 3250.39 0.05 
13500 1 -0.507365 -0.0361182 5.47335 0 0 0 1.06112 -118915 -111014 0 0.0195005 -39.8079 38161.3 9002.19 3337.92 0.05 
8359 1 -2.18541 0.0544637 5.53464 0 0 0 77.7597 -401.521 -109586 -0.486984 -0.0680946 -39.8079 -5819.2 -7486.86 -11905.4 0.05 
9169 1 -1.8853 0.0661682 5.55387 0 0 0 34.9853 72468.5 -109754 -0.245773 -0.124017 -39.8079 18361.9 -32131.1 19347.1 0.05 
10939 1 -2.73854 0.641417 5.54205 0 0 0 188.799 39.8253 -108479 -1.79556 -33960.9 -39.8079 3906.56 21481.6 603.853 0.05 
13249 1 -1.23514 -0.749756 5.58103 0 0 0 199.43 544.952 -107671 0 1.24533e+06 -39.8079 -27288.1 23601.4 -625.568 0.05 
13159 1 -3.55303 0.485257 5.58986 0 0 0 911.645 -477.741 -107355 1.36492e+07 -876.785 -39.8079 -17199.1 -37408.3 -2407.07 0.05 
8437 1 -3.415 0.598602 5.57996 0 0 0 585.165 38137.2 -108235 67170.7 -10936.7 -39.8079 19327.7 -34445.8 -4832.02 0.05 
12032 1 -2.87635 -0.33463 5.69288 0 0 0 290.307 -84.2954 -104733 -0.517233 56.1304 -39.8079 4790.94 -28224.8 3147.42 0.05 
13964 1 -0.207485 -0.242657 5.70516 0 0 0 -1.73267 -435.101 -104936 0 11.3334 -39.8079 -4294.31 -12211.4 -775.338 0.05 
6590 1 -3.55616 -0.131119 5.6999 0 0 0 739.945 131.805 -105312 1.60213e+07 1.11213 -39.8079 6267.37 -36918.6 8012.27 0.05 
9303 1 -0.349089 -0.119493 5.70136 0 0 0 0.589332 122.437 -105137 0 0.814907 -39.8079 -13928.1 -5148.38 933.195 0.05 
1859 1 -2.69933 0.260984 5.7109 0 0 0 110.629 -566.061 -104579 -1.72981 -15.7075 -39.8079 -5784.6 4348.33 5790.38 0.05 
12315 1 -3.41866 0.442622 5.69505 0 0 0 198.582 122.553 -105651 74988 -384.228 -39.8079 29274.3 -39488.5 7802.64 0.05 
6890 1 -2.16702 0.31375 5.7576 0 0 0 130.388 247.473 -103525 -0.465623 -39.2055 -39.8079 2141.05 14005.6 -3014.62 0.05 
4674 1 -1.59936 0.566037 5.7437 0 0 0 169.282 83.8312 -103803 -0.139667 -4981.71 -39.8079 24967.3 -9431.76 9902.63 0.05 
271 1 -3.47254 -0.159419 5.78078 0 0 0 266.999 194.947 -103281 443283 2.19153 -39.8079 -6456.94 40297.8 -4579.49 0.05 
13236 1 -3.13746 -0.132678 5.78017 0 0 0 271.394 -26401 -102743 140.068 1.15756 -39.8079 1781.1 -1637.86 4576.29 0.05 
11483 1 -1.88838 -0.713067 5.84111 0 0 0 4.93022 4887.5 -101314 -0.247377 316792 -39.8079 65648.3 -5559.14 -2364.46 0.05 
7042 1 -1.6896 0.40917 5.88231 0 0 0 223.827 -12654.7 -100089 -0.165591 -207.605 -39.8079 -34206.3 -5516.62 3736.18 0.05 
3372 1 -1.59224 -0.0170765 5.96203 0 0 0 4.82462 104.867 -98057.9 -0.137842 0.0020382 -39.8079 -23909.3 -10681.9 -2635.59 0.05 
13162 1 -0.413387 0.0436328 5.92564 0 0 0 109.41 261.21 -98328.8 0 -0.0346071 -39.8079 336.558 -9142.93 2716.89 0.05 
10345 1 -3.09119 -0.699168 6.00795 0 0 0 128.2 5019.65 -96029.9 61.9771 197304 -39.8079 52479.7 4063.3 -1435.06 0.05 
8516 1 -0.701537 0.265878 5.98055 0 0 0 1.42313 -60.5683 -97581.6 0 -17.1197 -39.8079 2073.26 9071.94 8287.91 0.05 
3963 1 -0.262169 0.568453 5.97457 0 0 0 2.44269 221.95 -97608.4 0 -5270.73 -39.8079 -5048.29 -19173.1 -6525.2 0.05 
10960 1 -1.21517 0.775116 5.97785 0 0 0 595.398 -3067.1 -97761.7 0 -3.62623e+06 -39.8079 -90095.7 -10669.7 9763.8 0.05 
13612 1 -1.51815 -0.179499 6.04937 0 0 0 62.0346 -322.345 -95748.3 -0.120518 3.37798 -39.8079 -15597.4 371.408 3250.97 0.05 
4198 1 -1.48515 -0.0450059 6.03418 0 0 0 89.7897 67.2626 -96374.1 -0.113677 0.0380289 -39.8079 -21743.3 -3519.48 1061.91 0.05 
13505 1 -0.163121 -0.0185824 6.04817 0 0 0 153.17 69735 -96226 0 0.00262792 -39.8079 23766.4 5473.26 -5383.39 0.05 
11890 1 -2.84084 0.138527 6.03379 0 0 0 451.004 -143.809 -96205.9 -1.28086 -1.34104 -39.8079 22358.7 -25560.3 3189.61 0.05 
10867 1 -3.06863 0.791488 6.04549 0 0 0 400.747 -492.66 -95278.5 41.7144 -7.72309e+06 -39.8079 -14545.6 26999.2 991.261 0.05 
13274 1 -1.34243 -0.79562 6.09454 0 0 0 153.741 210.735 -94381.9 -0.0891067 9.43444e+06 -39.8079 2351.61 -12550.2 -462.172 0.05 
9422 1 -1.45344 0.432168 6.11742 0 0 0 145.633 -279.522 -93780.3 -0.107554 -316.159 -39.8079 5125.03 2882.75 6268.6 0.05 
12344 1 -0.104796 -0.230872 6.14596 0 0 0 -0.974427 -381.27 -92491.4 0 9.14897 -39.8079 -1449.49 -3011.39 12858.7 0.05 
12661 1 -3.53534 0.281941 6.14077 0 0 0 619.952 -45.1973 -93168.8 5.77596e+06 -22.6552 -39.8079 15991.1 -5875.18 -3027.09 0.05 
4108 1 -0.71671 -0.612858 6.19216 0 0 0 8.49039 343.137 -91544.4 0 15733.3 -39.8079 23231 11283.8 -603.078 0.05 
11228 1 -0.85256 0.673017 6.20156 0 0 0 212.248 -292.247 -91138.1 0 -85624.5 -39.8079 26710.5 22515 882.167 0.05 
10394 1 -1.97787 -0.801443 6.26274 0 0 0 455.702 908.027 -89839.8 -0.30026 1.2597e+07 -39.8079 48274.2 4032.71 470.026 0.05 
10294 1 -1.68152 -0.715001 6.24417 0 0 0 8.9747 -85.2621 -90196.4 -0.163039 338970 -39.8079 15261.7 -5016.74 -2015.43 0.05 
7105 1 -1.48433 -0.376802 6.23225 0 0 0 154.374 -258.265 -90828.2 -0.113513 116.704 -39.8079 15953.6 -388.134 9770.12 0.05 
3780 1 -0.873492 -0.078155 6.25773 0 0 0 214.749 -236.551 -90065.6 0 0.208294 -39.8079 10985.2 15940 -3369.77 0.05 
6232 1 -3.38199 -0.587621 6.28204 0 0 0 598.033 593.148 -89029.1 26173.4 8334.2 -39.8079 -27584.8 35113.1 -8282.62 0.05 
11247 1 -2.36996 -0.0802879 6.28699 0 0 0 281.584 -280.537 -89138.6 -0.779206 0.22666 -39.8079 20176.5 16917.6 2779.55 0.05 
8380 1 -0.565669 -0.682031 6.33559 0 0 0 156.055 461.992 -88010.4 0 113296 -39.8079 -75.1218 -1963.71 6907.18 0.05 
11812 1 -2.01864 -0.410115 6.37916 0 0 0 8.26129 65.9612 -86739.4 -0.328906 211.181 -39.8079 -10600.1 -24162.6 9882.96 0.05 
13755 1 -0.903044 -0.27735 6.42068 0 0 0 3.04535 472.909 -85593.1 0 20.9185 -39.8079 -25575.7 30462.9 -6314.97 0.05 
4329 1 -2.2835 0.242165 6.42794 0 0 0 436.396 -111.317 -84885.3 -0.622544 -11.2334 -39.8079 -2387.67 -15375.5 689.759 0.05 
1210 1 -0.287026 0.252618 6.39435 0 0 0 0.254153 226.035 -86541 0 -13.5448 -39.8079 28407.2 -2975.74 -16011.4 0.05 
11916 1 -1.86258 0.437719 6.42187 0 0 0 70.8084 -59.1587 -85731.7 -0.23431 -350.539 -39.8079 21488.1 5883.66 -749.099 0.05 
11567 1 -2.3462 0.661225 6.40046 0 0 0 176.814 -583.33 -85965.3 -0.732136 -60037.4 -39.8079 1786.99 -21168.7 -7103.01 0.05 
13012 1 -1.05233 -0.637036 6.46089 0 0 0 394.42 185.022 -84787.3 0 30065.5 -39.8079 21567.3 -6382.23 -849.642 0.05 
9416 1 -3.55555 0.0583922 6.43825 0 0 0 870.407 -10.5578 -85264.2 1.5528e+07 -0.0843278 -39.8079 -16972.8 -56184.6 4454.39 0.05 
13282 1 -3.21729 0.439461 6.44758 0 0 0 370.898 -563.586 -84482.6 614.785 -362.13 -39.8079 20389 -43565.5 -11889.1 0.05 
11564 1 -3.51499 0.73078 6.50886 0 0 0 319.988 85562.4 -82607.4 2.33438e+06 -599365 -39.8079 261.991 23243.1 7058.2 0.05 
13957 1 -0.598618 -0.804736 6.57551 0 0 0 -0.438965 654.402 -81583.4 0 1.48901e+07 -39.8079 59375.1 20431 -1552.29 0.05 
3281 1 -1.80499 -0.499742 6.58558 0 0 0 79.8529 308.958 -80747.1 -0.208073 1175.15 -39.8079 26017.5 -1559.52 -5358.65 0.05 
9961 1 -3.54019 -0.450816 6.57636 0 0 0 483.141 185.325 -80410.8 7.25743e+06 448.512 -39.8079 31142.8 -24806.9 -9770.97 0.05 
12325 1 -2.51261 -0.289873 6.5656 0 0 0 567.319 149.826 -81643.2 -1.13706 25.9903 -39.8079 3195.34 13151 3670.74 0.05 
12952 1 -2.76218 -0.216583 6.56296 0 0 0 194.592 498.246 -81769.9 -1.79427 7.01624 -39.8079 -5596.16 13792.8 -4217.11 0.05 
8433 1 -1.9885 -0.11648 6.54084 0 0 0 90.5099 -85.5952 -82741.8 -0.307425 0.748857 -39.8079 -27629.9 -1613.83 63.4766 0.05 
7835 1 -1.02295 -0.109395 6.63224 0 0 0 265.872 325.825 -79933.1 0 0.609428 -39.8079 -18124.5 -28720.3 5095.93 0.05 
5927 1 -0.693441 -0.729722 6.68409 0 0 0 0.751385 4255.15 -78576.9 0 576301 -39.8079 45653.4 -463.853 2434.88 0.05 
13010 1 -2.89169 0.484388 6.65974 0 0 0 451.052 282.258 -78615.9 0.00261523 -861.704 -39.8079 11212.3 -23202.4 2727.87 0.05 
11203 1 -0.298454 0.769632 6.65063 0 0 0 59.4273 41.5815 -78279 0 -2.84969e+06 -39.8079 -16840.2 -19091.4 7106.99 0.05 
6997 1 -1.25697 -0.80256 6.70484 0 0 0 7.76568 2014.92 -77910.7 -0.0775327 1.33283e+07 -39.8079 104188 -3819 10772.9 0.05 
12277 1 -2.53156 -0.702778 6.72464 0 0 0 325.726 565.182 -76782.4 -1.19474 222654 -39.8079 5654.59 -17783.4 -7973.42 0.05 
10018 1 -2.7451 -0.123516 6.72436 0 0 0 265.188 264.743 -77504.8 -1.79916 0.909839 -39.8079 -8288.21 -4563.39 -8281.17 0.05 
3539 1 -0.255854 -0.676696 6.75415 0 0 0 229.158 250.826 -76730.4 0 95902.9 -39.8079 -28886.6 8081.73 7369.33 0.05 
7469 1 -0.105053 -0.651797 6.75428 0 0 0 4.7581 46.7218 -76297.7 0 45595.8 -39.8079 -2407.67 -5808.57 -2764.24 0.05 
6901 1 -0.0537504 0.0372494 6.79569 0 0 0 0.461508 -3.09134 -76635.4 0 -0.0214103 -39.8079 -22917.7 104160 1454.02 0.05 
11555 1 -0.793241 -0.550515 6.81198 0 0 0 363.825 -220.849 -74082.9 0 3491.75 -39.8079 -11791.8 -17522.3 961.235 0.05 
11344 1 -0.267187 -0.565371 6.79888 0 0 0 5.43804 -4.49597 -75193.8 0 4905.25 -39.8079 23001.7 -936.71 4012.35 0.05 
12466 1 -2.08386 -0.362125 6.87791 0 0 0 300.262 151558 -73491 -0.382014 90.2993 -39.8079 5353.66 -9415.89 6519.21 0.05 
13458 1 -3.34264 -0.109788 6.86859 0 0 0 181.792 -41.682 -73559 9427.48 0.616622 -39.8079 18407.7 -12866.5 -4957.3 0.05 
8541 1 -1.63815 0.12001 6.8843 0 0 0 6.86351 25451 -73294.3 -0.150142 -0.826655 -39.8079 13423.6 -24549.3 -4350.63 0.05 
2425 1 -2.46224 0.235327 6.8495 0 0 0 66.0808 471.966 -74051.8 -0.995214 -9.9247 -39.8079 5905.47 -5917.71 7310.86 0.05 
14013 1 -3.30282 -0.813247 7.00186 0 0 0 4.65878 1591.83 1.46091 1.69115e+06 1.51423e+07 627005 -824.365 4.74349 3405.81 0.05 
196 1 -3.09803 -0.804462 7.00917 0 0 0 0.354097 1962.61 -170.159 3.0224e+06 -4.13859e+08 1.36253e+06 -9494.29 466.883 1281.69 0.05 
12327 1 -1.10086 -0.812103 7.00054 0 0 0 1.39774 733.113 1.33255 721760 1.90311e+07 486405 -5480.87 75.6038 3955.92 0.05 
6695 1 -0.781353 -0.814391 7.00084 0 0 0 -0.228469 1050.14 -2.03368 -86471.8 2.41088e+07 -166477 -1092.25 -4.02891 288.33 0.05 
13221 1 -0.460262 -0.816838 6.9964 0 0 0 1.60618 1032.62 -267.46 299791 1.99599e+07 967469 -8992.28 -3324.23 -665.196 0.05 
9943 1 -2.92958 -0.762264 7.00646 0 0 0 133.529 537.449 -562.635 -4.45889e+06 1.43924e+07 -1.09618e+06 -1327.32 12340.6 -2055.56 0.05 
13855 1 -1.76189 -0.753614 7.00213 0 0 0 37.9227 288.381 -75.6188 -456094 5.23196e+06 1.62551e+06 -3353.82 3689.66 -5514.4 0.05 
12243 1 -0.703336 -0.747643 6.99981 0 0 0 79.2819 320.513 -334.437 0 1.14485e+06 -39.8079 -5970.99 2279.07 -7839.35 0.05 
11028 1 -0.585259 -0.763534 6.99815 0 0 0 -0.153485 246.904 -392.876 329557 1.91989e+06 -957901 -3555.14 -597.888 4986.29 0.05 
5466 1 -0.115585 -0.779351 7.00506 0 0 0 -1.06776 488.047 -133.28 0 4.38559e+06 -39.8079 -10239 -3204.55 -3795.08 0.05 
13426 1 -3.28289 -0.732446 7.0083 0 0 0 250.989 202.969 -1.28553 3.68088e+07 3.07643e+07 -2.21141e+06 -1369.9 3995.18 -736.306 0.05 
9896 1 -3.06332 -0.701398 7.00798 0 0 0 310.93 61.5735 -234.731 37.9901 212560 -39.8079 5202.11 -940.002 -4373.98 0.05 
11386 1 -2.47861 -0.71466 7.00376 0 0 0 283.764 261.198 -428.151 -1.03944 334940 -39.8079 382.913 1519.21 -801.951 0.05 
11448 1 -3.34893 -0.658957 7.00418 0 0 0 360.988 67.7873 -160.991 3.17508e+07 5.2092e+07 -2.26078e+06 -6176.28 -1563.49 -191.304 0.05 
9043 1 -2.27413 -0.662268 7.00108 0 0 0 338.69 0.892388 -62.9658 1.89666e+07 95344.8 -4.62842e+08 106.573 681.639 -139.581 0.05 
13214 1 -1.69918 -0.638691 7.00685 0 0 0 338.264 265.544 -157.348 -394216 423799 -457225 1733.34 2165.84 6028.68 0.05 
13698 1 -0.542132 -0.632657 6.99896 0 0 0 357.214 161.582 -238.566 -7.65798e+06 -2.81188e+08 -6.64535e+06 2491.1 -129.078 1964.59 0.05 
3890 1 -3.45125 -0.604552 7.00286 0 0 0 445.277 1.91638 -183.16 211522 12709.5 -39.8079 -1069.1 10032.3 850.346 0.05 
14036 1 -2.36915 -0.626068 6.9998 0 0 0 393.792 174.978 -90.3498 -1.11971e+07 5.92718e+06 -3.10745e+08 -5290.25 5527.6 -5038.09 0.05 
9387 1 -1.882 -0.631426 6.99882 0 0 0 362.588 410.237 -203.909 -0.244066 25775.6 -39.8079 -10148.1 -3104.27 4983.85 0.05 
8206 1 -1.54308 -0.603394 6.99908 0 0 0 166.134 224.238 -70412 -3.02604e+07 6.55968e+08 1.22003e+09 -8212.6 10870.1 -8529.68 0.05 
13329 1 -1.32537 -0.59304 7.00407 0 0 0 430.604 256.358 -0.00473138 -0.0866329 9521.9 -39.8079 -1941.81 4204.42 -4716.37 0.05 
5912 1 -0.352697 -0.595846 7.00131 0 0 0 423.986 404.21 -70.2555 0 10208.9 -39.8079 -8306.81 7485.19 2955.8 0.05 
11316 1 -2.80923 -0.55618 7.00163 0 0 0 287.696 210.025 -3.93194 -1.62015 3969.97 -39.8079 -3944.5 4585.05 -5793.04 0.05 
11479 1 -2.45589 -0.533294 7.00035 0 0 0 302.177 220.467 -309.894 1.6125e+06 265377 -150530 -3235.34 -6296.48 6479.95 0.05 
3581 1 -1.7395 -0.535011 7.00902 0 0 0 307.485 241.702 -385.409 -2.27483e+06 4.55398e+07 343432 -9001.89 2401.44 3058.65 0.05 
12594 1 -0.811702 -0.5472 7.00592 0 0 0 301.852 281.696 -327.574 -566130 -125092 -558631 228.267 7030.26 4655.75 0.05 
10556 1 -0.706435 -0.537616 7.00813 0 0 0 306.701 340.521 -250.435 -830467 -708330 1.35595e+06 1424.93 -1136.62 -3318.76 0.05 
9307 1 -0.257369 -0.530196 7.0011 0 0 0 289.382 485.801 -288.794 0 2229.89 -39.8079 549.015 3441.22 1945.48 0.05 
10082 1 -0.0747183 -0.573206 7.00126 0 0 0 1.02334 55451.6 -106.316 -1.03681e+07 -3.49933e+08 770854 -59419.5 -2315.91 -32674.3 0.05 
12205 1 -3.11839 -0.502941 7.00304 0 0 0 227.423 80.2376 -79.2445 -89843.5 -381646 -447012 -4859.27 2279.49 4620.14 0.05 
7966 1 -2.01973 -0.517041 7.00045 0 0 0 271.075 398.969 -67.7063 -0.329721 1683.52 -39.8079 -2696.06 2518.34 -512.502 0.05 
7434 1 -1.82326 -0.499494 7.00712 0 0 0 27.7432 10284.2 -245.375 -726705 -1.45536e+08 -2.41929e+06 289.034 2614.32 -599.384 0.05 
10984 1 -1.50088 -0.505508 6.99781 0 0 0 245.924 25.0386 -391.726 -472425 853458 -578740 -233.946 4292.91 4489.43 0.05 
13525 1 -1.37012 -0.487859 7.00869 0 0 0 216.02 323.936 -55.0662 -783749 -566437 -278260 -3514.4 1950.72 4184.31 0.05 
5517 1 -3.38611 -0.43382 6.99996 0 0 0 6921.43 -2.37279 -1.13177 -4.90592e+07 -611837 -189828 5.82627 -5980.14 3045.48 0.05 
6295 1 -3.22181 -0.470009 7.00543 0 0 0 127.987 325.598 -202 671.489 648.865 -39.8079 -7466.71 412.582 5921.79 0.05 
13644 1 -2.15689 -0.468241 6.99906 0 0 0 112.019 48.5349 -175.272 -0.454341 626.896 -39.8079 7985.45 350.986 5409.37 0.05 
7418 1 -1.68382 -0.447823 6.99602 0 0 0 0.890269 278.434 -264.707 -0.163762 423.789 -39.8079 181.889 -2164.34 1394.11 0.05 
3483 1 -0.6382 -0.470199 7.00937 0 0 0 133.367 132.815 -4.78078 830467 711602 -1.35603e+06 -4378.96 1579.86 2250.66 0.05 
6072 1 -3.06716 -0.414932 7.00475 0 0 0 3.10895 64.5169 -100.224 799368 9040.33 71855.3 -390.438 -4234.44 1273.36 0.05 
11339 1 -2.07377 -0.371332 7.00269 0 0 0 5.45611 169.571 -312.048 -2.12494e+07 6.09569e+08 6.19508e+06 -531.097 702.394 5362.53 0.05 
12492 1 -1.42302 -0.40092 7.00415 0 0 0 0.290928 283.972 -444.797 -0.10206 178.972 -39.8079 -5414.35 134.491 4899.75 0.05 
2539 1 -1.16148 -0.407533 7.00889 0 0 0 5.60257 108.358 -2.39627 734883 7.58494e+07 -1.85257e+06 -1021.06 -23.0383 -3416.16 0.05 
6261 1 -0.775936 -0.369675 6.99487 0 0 0 0.281684 336.86 -308.997 0 103.005 -39.8079 -2696.97 3748.79 -391.03 0.05 
11157 1 -0.354937 -0.409219 7.00165 0 0 0 0.531322 283.288 -1.2828 2.12296e+06 5.81575e+07 -2.09621e+06 -3445.34 -5.50691 4891.12 0.05 
12860 1 -0.239994 -0.405348 7.00327 0 0 0 3.71863 453.482 -1.6501 1.27828e+06 6.79757e+08 1.94703e+07 -2769.37 37.5169 -1001.48 0.05 
3298 1 -2.40034 -0.348798 7.00426 0 0 0 65.2207 251.122 -207.485 -0.844294 71.6667 -39.8079 -7407.33 4969.75 -8391.18 0.05 
2973 1 -1.87788 -0.317405 6.96195 0 0 0 120.377 78.4469 -70453.1 4.44774e+06 -1.48615e+07 3.47764e+08 -6376.88 -4008.11 2661.4 0.05 
13080 1 -1.62802 -0.32472 7.00379 0 0 0 197.172 174.738 -0.752553 273031 -704925 20892.3 -1211.8 1295.68 -11188.5 0.05 
11927 1 -1.26223 -0.32798 7.00104 0 0 0 190.308 23.754 -2.49986 -516436 7.27574e+07 -337618 89.0155 1441.39 -5774.03 0.05 
11626 1 -3.32714 -0.29257 7.00742 0 0 0 303.063 -0.21285 -265.272 6470.23 27.2293 -39.8079 4436.21 -2902.13 -4277.21 0.05 
246 1 -1.97385 -0.3048 7.00773 0 0 0 260.634 227.225 -36.4535 -0.2976 33.6151 -39.8079 -4176.83 3057.67 -10532.1 0.05 
13413 1 -0.751135 -0.270003 7.00767 0 0 0 237.796 306.591 -71.5371 5.6487e+08 -5.06255e+08 -1.0026e+07 3146.61 989.697 -5033.73 0.05 
13443 1 -2.62116 -0.232317 7.00218 0 0 0 313.393 306.637 -303.102 -1.49036 9.3942 -39.8079 -9285.9 -1777.63 1566.2 0.05 
4622 1 -1.81864 -0.214883 7.01011 0 0 0 246.529 -55.0865 -4.68846 -2.21494e+06 4.5663e+08 3.44794e+06 857.458 919.3 5625.91 0.05 
11055 1 -1.5838 -0.222918 7.00822 0 0 0 284.437 77.1732 -126 -0.13572 7.89929 -39.8079 -3994.61 5233.94 1669.15 0.05 
9031 1 -1.07326 -0.254009 7.00495 0 0 0 334.719 288.981 -1.45958 0 13.8839 -39.8079 -2048.04 1858.17 5458.71 0.05 
8291 1 -0.433879 -0.221931 7.00822 0 0 0 0.124936 -253.163 -245.323 7.8842e+06 -2.08107e+08 5.82957e+06 264.293 -5930.58 437.809 0.05 
10863 1 -3.47697 -0.176276 7.00078 0 0 0 4422.5 -8.96716 -474.978 -4.62737e+07 -3.30369e+06 265863 -6520.54 -258.039 6034.49 0.05 
11894 1 -3.17246 -0.176204 7.00152 0 0 0 96.5518 8.98744 -5.20045 42782.1 2.24774e+06 -1.20367e+06 -201.067 590.685 3803.63 0.05 
12122 1 -0.56174 -0.188512 6.99449 0 0 0 -0.486486 -280.04 -438.813 0 4.06275 -39.8079 1571.51 2273.6 -4490.38 0.05 
13658 1 -0.159218 -0.167778 6.99607 0 0 0 0.901831 -95.8226 -339.924 4.82587e+06 8.97734e+07 4.00774e+06 4928.96 -2425.72 -5145.33 0.05 
12127 1 -2.82774 -0.110452 7.00534 0 0 0 0.658221 -16.5174 -176.056 -1.45123 0.628889 -39.8079 -349.767 7175.76 -685.997 0.05 
7242 1 -1.01374 -0.156405 7.00345 0 0 0 2.10499 301.785 -440.675 0 2.04755 -39.8079 -4537.36 4110.27 -3968.13 0.05 
6839 1 -2.93522 -0.0577882 7.00059 0 0 0 91.9205 286.016 -1.03184 2.49937 0.0816752 -39.8079 -1689.84 3566.96 -6522.54 0.05 
8449 1 -2.52359 -0.0607205 7.00906 0 0 0 162.074 53.686 -328.878 -4.15608e+06 -2.90772e+08 1.14083e+06 -2517.69 8863.03 -1207.21 0.05 
9952 1 -1.27424 -0.0749009 7.00529 0 0 0 84.0763 1.56742 -1.39537 -0.0797141 0.182341 -39.8079 475.418 3136.13 -2102.83 0.05 
13065 1 -0.446239 -0.073472 7.00082 0 0 0 60.1186 -390.178 -1.9542 0 0.171701 -39.8079 5055.88 2363.08 -659.839 0.05 
11753 1 -2.68201 -0.00645269 7.00319 0 0 0 158.712 81.7942 -133.325 1.78601e+06 195792 -428204 5744.9 1753.97 -1471.7 0.05 
13038 1 -2.38194 -0.0442054 7.00789 0 0 0 165.658 -46.8756 -293.639 2.20583e+06 -4.41102e+08 -150717 7271.71 7013.9 -917.555 0.05 
9721 1 -2.21163 -0.0454883 7.00064 0 0 0 121.617 -75.3452 -128.881 -4.35245e+06 1.92728e+07 -5.04896e+08 2826.96 5627.49 -4921.22 0.05 
11177 1 -1.65714 -0.0146546 6.99961 0 0 0 139.471 284.156 -268.936 -1.75612e+06 -878096 -502684 -7266.03 12458.9 -1369.14 0.05 
10773 1 -0.272193 -0.0395117 6.99969 0 0 0 126.001 218.709 -136.875 0 0.0256017 -39.8079 4214.1 7977.33 -7016.14 0.05 
9438 1 -3.46765 0.0214012 7.00267 0 0 0 4610.75 -62.8079 -168.323 -5.18867e+07 1.12933e+06 -2.18096e+06 -1063.44 -6748.54 -2067.59 0.05 
1157 1 -1.05192 0.0231849 7.00781 0 0 0 115.395 327.817 -0.866381 0 -0.00511484 -39.8079 -1803.03 4161.78 4188.08 0.05 
2032 1 -0.422469 0.0471287 6.99749 0 0 0 1.15672 -302.125 -333.327 0 -0.0437616 -39.8079 5672.86 1259.79 -199.496 0.05 
5587 1 -2.27415 0.057875 7.00757 0 0 0 50.0877 -149.646 -96.9035 2.31011e+06 -1.14124e+08 3.599e+06 5003.55 5958.1 -2385.96 0.05 
4228 1 -2.03705 0.0877953 7.00414 0 0 0 119.611 -87.8968 -1.67871 -0.342933 -0.300527 -39.8079 1024.1 4523.61 4066.53 0.05 
5683 1 -1.90226 0.0562145 7.00452 0 0 0 28.7772 -107.997 -0.381856 1.04082e+06 -86531.7 28464.2 848.542 1012.72 -5123.56 0.05 
9104 1 -0.713233 0.0644559 7.0083 0 0 0 90.4589 82.6119 -193.509 -253256 160985 1.33202e+06 4302.84 8563.08 -4089.16 0.05 
11421 1 -3.47071 0.154759 7.00224 0 0 0 4559.65 65.7322 -182.435 -3.96887e+07 985444 -1.38785e+06 -1607.78 -3051.7 1832.42 0.05 
1592 1 -1.4372 0.12078 7.00517 0 0 0 174.701 154.41 -226.427 -1.1766e+07 -4.26506e+08 -9.74056e+06 -1875.25 77.1555 3450.43 0.05 
8636 1 -0.448033 0.153975 7.00615 0 0 0 120.445 -413.901 -0.683983 0 -1.93714 -39.8079 4452.07 4363.29 3557.15 0.05 
3720 1 -0.320743 0.117869 7.00092 0 0 0 143.364 313.586 -1.43717 0 -0.778785 -39.8079 -3241.05 5521.36 1523.92 0.05 
11518 1 -3.24934 0.183428 7.00007 0 0 0 3.89503 -225.388 -229.923 1165.04 -3.66335 -39.8079 -2998.39 -2600.31 5901.16 0.05 
8568 1 -3.02178 0.186435 7.00796 0 0 0 3.87646 172.141 -1.42196 -1.1597e+07 4.9059e+08 1.08206e+07 836.614 31.3446 6749.76 0.05 
11832 1 -2.59851 0.186706 7.00209 0 0 0 4.56071 99.0722 -2.75082 -1.4136 -3.91688 -39.8079 -3087.6 77.6596 2571.15 0.05 
11037 1 -1.58198 0.169978 7.00065 0 0 0 73.8741 40.2106 -118.72 -0.135268 -2.76257 -39.8079 -1760.1 3769.79 26.9101 0.05 
5472 1 -1.06038 0.185766 7.00205 0 0 0 -0.58005 311.801 -1.09827 0 -3.84272 -39.8079 -2556.03 5.25948 2851.06 0.05 
13760 1 -3.56415 0.252924 6.99762 0 0 0 1570.06 -25.3353 -414.56 1.3327e+07 -646712 -183995 4414.26 9746.5 4305.17 0.05 
10467 1 -3.39057 0.223926 7.00623 0 0 0 62.9866 -84.3033 -1.42404 3.07356e+07 122581 559336 862.694 2589.56 -3809.05 0.05 
1680 1 -1.26587 0.260659 7.00663 0 0 0 194.601 74763.1 -296.559 -1.14961e+07 -1.78693e+09 -4.53697e+08 -10640.7 5286.95 -10625.3 0.05 
3741 1 -1.25445 0.220798 7.01017 0 0 0 1.01966 -89.638 -76.5296 -2.63743e+07 5.53881e+08 -4.76536e+08 -540.159 1012.81 698.643 0.05 
13514 1 -0.206695 0.247824 7.0071 0 0 0 -0.224222 -109.276 -371.945 356496 757799 -154626 8672.39 -3882.99 1774.76 0.05 
6836 1 -0.737035 0.275163 7.00055 0 0 0 -0.490588 69.6785 -289.31 -392316 623807 -676489 2518.39 4841.7 561.227 0.05 
5181 1 -3.30789 0.341924 7.0014 0 0 0 340.189 -308.945 -1.13251 4127.54 -63.6461 -39.8079 3858.65 5791.69 -7304.2 0.05 
5457 1 -2.82761 0.322915 7.00408 0 0 0 219.112 0.623987 -65.9054 -1.45261 -45.8909 -39.8079 -2818.02 6535.62 -4939.71 0.05 