ITEM: TIMESTEP
340000
ITEM: NUMBER OF ATOMS
14052
ITEM: BOX BOUNDS ff pp ff
-3.75 3.75
-1 1
0 10
ITEM: ATOMS id type x y z ix iy iz vx vy vz fx fy fz omegax omegay omegaz radius 
13821 1 -1.59504 -0.510177 4.02922 0 0 0 0.275183 105.579 -171857 -0.138557 1457.79 -39.8079 4511.3 3783.37 -2558.63 0.05 
9412 1 -2.15413 -0.351576 4.02078 0 0 0 1.89464 14.6514 -171840 -0.451319 75.1946 -39.8079 -9278.38 13846.1 5701.27 0.05 
10206 1 -3.22371 0.650227 4.06835 0 0 0 223.626 -338.449 -170107 696.954 -43584.5 -39.8079 5136.14 -10974 -8981.36 0.05 
12795 1 -2.98347 -0.319185 4.12406 0 0 0 496.068 -76.1834 -168732 8.44607 43.042 -39.8079 -10403.9 3184.62 3882.04 0.05 
13215 1 -0.22749 -0.100461 4.10991 0 0 0 -0.415757 615.338 -169069 0 0.462283 -39.8079 56.5582 22216.6 -6775.57 0.05 
7183 1 -0.750531 -0.359707 4.19234 0 0 0 -0.775491 310.248 -166448 0 86.581 -39.8079 -12783.2 -9045.73 -4366.71 0.05 
4371 1 -1.71272 0.397257 4.17377 0 0 0 0.978136 -152.086 -167037 -0.173175 -167.626 -39.8079 17513.9 -2599.57 17.1685 0.05 
11397 1 -0.430413 0.754649 4.18407 0 0 0 0.381765 52.483 -166689 0 -1.51725e+06 -39.8079 9019.46 16450.5 -5556.43 0.05 
13017 1 -1.48729 -0.791427 4.30168 0 0 0 0.909248 586.026 -163153 -0.114106 7.70019e+06 -39.8079 -24189.3 -7438.98 3021.17 0.05 
12202 1 -1.69774 -0.492813 4.26481 0 0 0 179.822 82.5021 -164076 -0.168214 1020.62 -39.8079 9591.61 11592.2 3632.57 0.05 
10576 1 -3.26832 0.234519 4.265 0 0 0 288.583 -171.664 -164748 1729.16 -9.77979 -39.8079 -34639.3 13625.1 1203.32 0.05 
8448 1 -0.483474 -0.797674 4.40709 0 0 0 0.508839 355.644 -159922 0 1.04375e+07 -39.8079 -5624.8 -12451.1 599.922 0.05 
11202 1 -0.84942 0.252023 4.43497 0 0 0 123.447 238.648 -159224 0 -13.4023 -39.8079 -9912.06 27218.7 2176.75 0.05 
13635 1 -1.11897 0.674854 4.41952 0 0 0 1.12983 -248.976 -159669 0 -90597 -39.8079 23219.4 1106.72 3265.97 0.05 
11049 1 -2.64826 -0.218509 4.48481 0 0 0 133.741 -5.57849 -157302 -1.58071 7.27482 -39.8079 18.8217 -15907.8 3665.63 0.05 
9405 1 -1.49322 0.137391 4.4929 0 0 0 152.075 67.4589 -157450 -0.115305 -1.30374 -39.8079 -6349.9 -4238.04 -3403.14 0.05 
12319 1 -0.0529344 0.161391 4.49469 0 0 0 -0.207636 85.6351 -158386 0 -2.2901 -39.8079 -4133.99 98548.8 -3973.59 0.05 
11924 1 -1.4842 -0.171575 4.54503 0 0 0 0.042537 132709 -156145 -0.113487 2.85876 -39.8079 -713.479 -4098.91 8296.87 0.05 
13254 1 -1.96443 0.529371 4.54581 0 0 0 -0.150737 27.6401 -155765 -0.291485 -2190.49 -39.8079 -7367.64 -23625.4 3565.41 0.05 
12761 1 -0.541564 0.529031 4.53236 0 0 0 0.273628 -327.093 -156298 0 -2174.44 -39.8079 16792.2 -12762.6 -880.602 0.05 
11242 1 -1.16453 0.577863 4.58088 0 0 0 -0.0422323 -200.72 -155175 0 -6583.95 -39.8079 11388 -13157.8 4496.39 0.05 
8681 1 -0.510988 0.818994 4.61724 0 0 0 -0.925695 -789.194 -153783 0 -3.17839e+07 -39.8079 -50699.1 11980.1 1235.89 0.05 
12566 1 -1.89831 0.27166 4.63829 0 0 0 77.5525 -317.074 -153211 -0.252651 -18.9433 -39.8079 -16700 2013.15 5382.68 0.05 
12900 1 -3.48688 0.799267 4.64391 0 0 0 311.195 -533.711 -151839 753948 -1.12957e+07 -39.8079 -23920.6 40304.7 -3110.64 0.05 
10609 1 -1.77684 -0.321961 4.82635 0 0 0 1.51252 -165.219 -147349 -0.196572 45.1444 -39.8079 27672.1 -1753.56 3676.46 0.05 
12455 1 -2.35562 -0.307564 4.78618 0 0 0 1.67213 168.304 -148866 -0.750412 35.2514 -39.8079 7925.15 12355.5 -4376.61 0.05 
4032 1 -1.64334 0.245586 4.7825 0 0 0 0.993796 310.862 -148998 -0.151617 -11.9461 -39.8079 9126.22 20299.1 3259.07 0.05 
7677 1 -1.36622 0.536208 4.78837 0 0 0 -0.253297 -136.763 -149126 -0.0927063 -2541.53 -39.8079 -7104.88 7447.28 662.835 0.05 
11415 1 -0.876282 0.819995 4.80585 0 0 0 238.893 -945.794 -148344 0 -3.35968e+07 -39.8079 -96357.5 -10605.3 1405.99 0.05 
8255 1 -3.29241 -0.428357 4.85094 0 0 0 175.978 68.4656 -146740 2913.06 294.649 -39.8079 -29492.7 -11449 4606.84 0.05 
13781 1 -2.52462 -0.000979482 4.93895 0 0 0 31.3856 1.24119 -144580 -1.17338 3.83402e-07 -39.8079 5489.15 -18032.1 -657.816 0.05 
6492 1 -1.6974 0.757212 4.96996 0 0 0 110.525 -199.571 -142339 -0.168103 -1.68536e+06 -39.8079 16696.9 -12891.1 2389.16 0.05 
9165 1 -2.43638 -0.769129 5.03112 0 0 0 69.1415 61.0347 -141097 -0.929069 2.78817e+06 -39.8079 -44682.4 13410.2 -3042.24 0.05 
12363 1 -3.14944 -0.413656 5.00607 0 0 0 355.596 239.597 -142172 173.564 225.169 -39.8079 8225.56 -3555.31 5490.18 0.05 
6487 1 -3.3562 -0.324232 5.02788 0 0 0 396.834 223.839 -141599 13253.7 46.9405 -39.8079 12836.7 -22377.9 -7704.65 0.05 
7639 1 -0.95467 -0.192165 5.00942 0 0 0 -1.0914 165.7 -141912 0 4.37212 -39.8079 15457.6 21674 1082.4 0.05 
13278 1 -2.0433 0.807089 5.06505 0 0 0 147.39 -1185.21 -140221 -0.347864 -1.68098e+07 -39.8079 -69159.6 7820.31 8625.9 0.05 
11852 1 -2.18423 -0.537149 5.10891 0 0 0 209.781 264.786 -138928 -0.485576 2594.48 -39.8079 11897.3 19456.2 984.161 0.05 
10766 1 -2.77495 0.0208195 5.10513 0 0 0 274.323 -645.343 -139270 -1.7741 -0.0036994 -39.8079 -41199.7 -4787.51 941.861 0.05 
12207 1 -0.638596 0.326344 5.12138 0 0 0 -0.261889 -17318 -139063 0 -48.6763 -39.8079 -20262.1 -18969.9 601.985 0.05 
3777 1 -2.73808 -0.694516 5.14567 0 0 0 477.102 -46658.1 -137498 -1.79521 169207 -39.8079 2511.96 -4716.12 -2155.11 0.05 
11713 1 -2.15251 -0.254057 5.15811 0 0 0 187.819 -811.193 -137639 -0.449562 13.8959 -39.8079 12852.1 -8865.71 6541.5 0.05 
9454 1 -2.46708 -0.120863 5.16082 0 0 0 23.8613 148.175 -137789 -1.00808 0.846333 -39.8079 8704.99 5585.32 2765.96 0.05 
3037 1 -0.655822 0.0306768 5.23722 0 0 0 51.9572 -3.79083 -135437 0 -0.0119006 -39.8079 -3964.81 -4136.05 3439.81 0.05 
9289 1 -0.142846 0.318239 5.25688 0 0 0 1.1644 -131.287 -134108 0 -42.3483 -39.8079 -3624.17 -6460.88 4435.75 0.05 
10622 1 -2.53088 -0.515511 5.30276 0 0 0 149.526 3.09393 -132670 -1.19265 1630.1 -39.8079 -19546.9 30099.5 -1973.68 0.05 
9291 1 -0.58291 -0.164206 5.33509 0 0 0 0.867404 -55.9492 -132285 0 2.43703 -39.8079 9808.39 -21308.2 -682.456 0.05 
1298 1 -2.31966 -0.553289 5.3964 0 0 0 79.3297 274.922 -130642 -0.683258 3717.61 -39.8079 5833.24 8835.42 -5717.94 0.05 
6601 1 -3.06654 -0.240082 5.39484 0 0 0 222.059 156.804 -130485 40.2118 10.8189 -39.8079 1511.83 7088.19 3380.35 0.05 
8417 1 -2.52961 -0.50701 5.40606 0 0 0 9.37303 66461.2 -129879 -1.18871 1364.91 -39.8079 7807.19 -6700.52 1209.71 0.05 
10028 1 -3.44531 0.694845 5.49529 0 0 0 386.752 -271.599 -126502 173673 -171042 -39.8079 44558.4 21410.1 2807.04 0.05 
11208 1 -0.922924 0.317027 5.5074 0 0 0 -0.489781 -313.998 -127289 0 -41.476 -39.8079 -18203.6 16205.6 -2992.52 0.05 
11214 1 -1.90871 0.809337 5.53861 0 0 0 194.512 -959.387 -125393 -0.258314 -1.88998e+07 -39.8079 -70915.1 587.244 -4847.1 0.05 
2112 1 -1.3742 -0.397008 5.59476 0 0 0 111.049 -54.5444 -124158 -0.0939533 166.88 -39.8079 1233.91 1872.77 1305.06 0.05 
206 1 -2.29087 -0.760596 5.63367 0 0 0 83.4541 67.3961 -122356 -0.634392 1.9394e+06 -39.8079 -18401.5 -18084.4 1061.65 0.05 
9911 1 -2.30417 -0.191699 5.70799 0 0 0 90.3066 -152.24 -121287 -0.656455 4.33156 -39.8079 -9458.35 6156.14 792.257 0.05 
13478 1 -2.78968 0.407772 5.67426 0 0 0 449.637 -45.6359 -121456 -1.72845 -202.431 -39.8079 -10129.5 -26863.5 2476.92 0.05 
4730 1 -2.34889 0.571384 5.68751 0 0 0 334.723 -235.061 -121644 -0.737297 -5646.09 -39.8079 20948.1 -7961.38 -4366.16 0.05 
8660 1 -2.89719 -0.7807 5.71847 0 0 0 534.999 444.845 -119849 0.225479 4.66306e+06 -39.8079 14477.5 -14760.4 -8301.81 0.05 
12559 1 -2.53841 -0.772217 5.73001 0 0 0 32464 43.3686 -119774 -1.21615 3.19012e+06 -39.8079 -43723.8 -25383.5 -13862.8 0.05 
4350 1 -1.93955 -0.593818 5.79635 0 0 0 93.4383 630.475 -117650 -0.276069 9707.1 -39.8079 -12400.1 -42919.9 4136.68 0.05 
13047 1 -1.4714 -0.50457 5.77538 0 0 0 2.72496 121.489 -118930 -0.110971 1297.75 -39.8079 -5261.26 -2525.86 1985.84 0.05 
9947 1 -0.484495 -0.207997 5.80744 0 0 0 0.987894 -342.507 -117774 0 5.95991 -39.8079 -10103.5 12433.8 10082.9 0.05 
7680 1 -0.230753 0.660146 5.79691 0 0 0 -0.0890154 3.40986 -117826 0 -58154.2 -39.8079 -7670.81 -7350.76 -6526.56 0.05 
3659 1 -1.15943 -0.610003 5.81575 0 0 0 5.16334 430.733 -117801 0 14613.2 -39.8079 2733.13 11103 -565.496 0.05 
12040 1 -3.1917 0.0935138 5.90416 0 0 0 471.713 -356.738 -114849 377.005 -0.367342 -39.8079 15089.1 17082 -86.3417 0.05 
11268 1 -1.93232 -0.197958 5.93236 0 0 0 1.76208 -81.2142 -114222 -0.271772 4.90421 -39.8079 29864.8 -3618.73 -685.673 0.05 
7591 1 -0.677 0.715217 5.95417 0 0 0 -0.00815119 68.199 -113236 0 -341560 -39.8079 14341 -7770.88 7549.9 0.05 
12192 1 -0.20644 0.179678 5.99992 0 0 0 2.37786 -93.6073 -112466 0 -3.39054 -39.8079 19408.4 -524.192 3250.39 0.05 
13500 1 -0.50737 0.558459 6.02842 0 0 0 1.06112 -118915 -111014 0 -4182.19 -39.8079 38161.3 9002.19 3337.92 0.05 
13249 1 -1.23614 -0.752477 6.11938 0 0 0 199.43 543.331 -107671 0 1.38924e+06 -39.8079 -27288.1 23601.4 -625.568 0.05 
9169 1 -1.88548 -0.296174 6.10264 0 0 0 34.9853 72468.5 -109754 -0.245864 28.976 -39.8079 18361.9 -32131.1 19347.1 0.05 
8359 1 -2.1858 0.0564713 6.08257 0 0 0 77.7597 -401.521 -109586 -0.487448 -0.0760918 -39.8079 -5819.2 -7486.86 -11905.4 0.05 
8437 1 -3.41792 0.407916 6.12113 0 0 0 585.079 38137.3 -108235 73342 -202.959 -39.8079 19327.7 -34445.8 -4832.02 0.05 
10939 1 -2.73948 0.641218 6.08445 0 0 0 188.799 39.867 -108479 -1.79624 -33772.2 -39.8079 3906.56 21481.6 603.853 0.05 
13159 1 -3.55754 0.487646 6.12664 0 0 0 892.719 -477.74 -107355 1.72097e+07 -919.731 -39.8079 -17199.1 -37408.3 -2407.07 0.05 
12032 1 -2.8778 -0.334208 6.21654 0 0 0 290.307 -84.2954 -104733 -0.473927 55.7247 -39.8079 4790.94 -28224.8 3147.42 0.05 
6590 1 -3.55981 -0.131778 6.22646 0 0 0 718.2 131.805 -105312 1.93729e+07 1.13116 -39.8079 6267.37 -36918.6 8012.27 0.05 
9303 1 -0.349092 -0.120106 6.22705 0 0 0 0.589332 122.437 -105137 0 0.828846 -39.8079 -13928.1 -5148.38 933.195 0.05 
12315 1 -3.41965 0.442009 6.22331 0 0 0 198.488 122.554 -105651 77276.6 -379.835 -39.8079 29274.3 -39488.5 7802.64 0.05 
13964 1 -0.207476 -0.240481 6.22984 0 0 0 -1.73267 -435.101 -104936 0 10.8972 -39.8079 -4294.31 -12211.4 -775.338 0.05 
1859 1 -2.69989 0.263814 6.23379 0 0 0 110.629 -566.061 -104579 -1.73114 -16.5101 -39.8079 -5784.6 4348.33 5790.38 0.05 
6890 1 -2.16767 0.312513 6.27522 0 0 0 130.388 247.473 -103525 -0.466361 -38.3809 -39.8079 2141.05 14005.6 -3014.62 0.05 
4674 1 -1.60021 0.565617 6.26272 0 0 0 169.282 83.8373 -103803 -0.139886 -4933.37 -39.8079 24967.3 -9431.76 9902.63 0.05 
271 1 -3.47387 -0.160393 6.29718 0 0 0 266.44 194.947 -103281 465179 2.23981 -39.8079 -6456.94 40297.8 -4579.49 0.05 
13236 1 -3.13882 -0.000672815 6.29388 0 0 0 271.394 -26401 -102743 143.497 1.24265e-07 -39.8079 1781.1 -1637.86 4576.29 0.05 
11483 1 -1.8884 -0.737503 6.34768 0 0 0 4.93022 4886.87 -101314 -0.24739 771952 -39.8079 65648.3 -5559.14 -2364.46 0.05 
13162 1 -0.413934 0.0423268 6.41728 0 0 0 109.41 261.21 -98328.8 0 -0.0315526 -39.8079 336.558 -9142.93 2716.89 0.05 
7042 1 -1.69072 0.472443 6.38275 0 0 0 223.827 -12654.7 -100089 -0.165949 -680.488 -39.8079 -34206.3 -5516.62 3736.18 0.05 
3372 1 -1.59226 -0.0176009 6.45232 0 0 0 4.82462 104.867 -98057.9 -0.137848 0.00223222 -39.8079 -23909.3 -10681.9 -2635.59 0.05 
8516 1 -0.701544 0.266181 6.46846 0 0 0 1.42313 -60.5683 -97581.6 0 -17.2109 -39.8079 2073.26 9071.94 8287.91 0.05 
3963 1 -0.262181 0.567343 6.46261 0 0 0 2.44269 221.956 -97608.4 0 -5135.79 -39.8079 -5048.29 -19173.1 -6525.2 0.05 
10960 1 -1.21814 0.790437 6.46666 0 0 0 595.398 -3060.63 -97761.7 0 -7.34426e+06 -39.8079 -90095.7 -10669.7 9763.8 0.05 
10345 1 -3.09183 -0.724265 6.4881 0 0 0 128.2 5019.27 -96029.9 62.677 471836 -39.8079 52479.7 4063.3 -1435.06 0.05 
13505 1 -0.163887 -0.367257 6.5293 0 0 0 153.17 69735 -96226 0 98.7465 -39.8079 23766.4 5473.26 -5383.39 0.05 
13612 1 -1.51846 -0.177887 6.52811 0 0 0 62.0346 -322.345 -95748.3 -0.120584 3.26644 -39.8079 -15597.4 371.408 3250.97 0.05 
4198 1 -1.48559 -0.0453422 6.51605 0 0 0 89.7897 67.2626 -96374.1 -0.113766 0.0389008 -39.8079 -21743.3 -3519.48 1061.91 0.05 
11890 1 -2.84309 0.139246 6.51482 0 0 0 451.004 -143.809 -96205.9 -1.2465 -1.36507 -39.8079 22358.7 -25560.3 3189.61 0.05 
10867 1 -3.07063 0.793927 6.52188 0 0 0 400.747 -482.561 -95278.5 43.2123 -8.68735e+06 -39.8079 -14545.6 26999.2 991.261 0.05 
13274 1 -1.3432 -0.796644 6.56645 0 0 0 153.741 198.811 -94381.9 -0.0892202 9.92054e+06 -39.8079 2351.61 -12550.2 -462.172 0.05 
9422 1 -1.45417 0.433565 6.58632 0 0 0 145.633 -279.522 -93780.3 -0.10769 -324.461 -39.8079 5125.03 2882.75 6268.6 0.05 
12344 1 -0.104792 -0.228966 6.60842 0 0 0 -0.974427 -381.27 -92491.4 0 8.83418 -39.8079 -1449.49 -3011.39 12858.7 0.05 
12661 1 -3.53842 0.282167 6.60661 0 0 0 612.295 -45.1973 -93168.8 6.67453e+06 -22.7442 -39.8079 15991.1 -5875.18 -3027.09 0.05 
4108 1 -0.716752 -0.614574 6.64988 0 0 0 8.49039 343.117 -91544.4 0 16451.5 -39.8079 23231 11283.8 -603.078 0.05 
7105 1 -1.4851 -0.375511 6.68639 0 0 0 154.374 -258.265 -90828.2 -0.113667 114.088 -39.8079 15953.6 -388.134 9770.12 0.05 
11228 1 -0.853621 0.674478 6.65725 0 0 0 212.248 -292.139 -91138.1 0 -89553.2 -39.8079 26710.5 22515 882.167 0.05 
10394 1 -1.98015 -0.805941 6.71194 0 0 0 455.702 890.584 -89839.8 -0.301779 1.58414e+07 -39.8079 48274.2 4032.71 470.026 0.05 
10294 1 -1.68156 -0.714573 6.69515 0 0 0 8.9747 -85.6767 -90196.4 -0.163053 333925 -39.8079 15261.7 -5016.74 -2015.43 0.05 
6232 1 -3.38498 -0.590586 6.72719 0 0 0 598 593.138 -89029.1 28406.6 8962.66 -39.8079 -27584.8 35113.1 -8282.62 0.05 
11247 1 -2.37137 -0.0788853 6.73268 0 0 0 281.584 -280.537 -89138.6 -0.782098 0.214458 -39.8079 20176.5 16917.6 2779.55 0.05 
3780 1 -0.874565 -0.0769722 6.70806 0 0 0 214.749 -236.551 -90065.6 0 0.198577 -39.8079 10985.2 15940 -3369.77 0.05 
8380 1 -0.566449 -0.684341 6.77564 0 0 0 156.055 461.847 -88010.4 0 121878 -39.8079 -75.1218 -1963.71 6907.18 0.05 
11812 1 -2.01868 -0.410445 6.81286 0 0 0 8.26129 65.9609 -86739.4 -0.328937 212.444 -39.8079 -10600.1 -24162.6 9882.96 0.05 
1210 1 -0.287027 0.251487 6.82705 0 0 0 0.254153 226.035 -86541 0 -13.2751 -39.8079 28407.2 -2975.74 -16011.4 0.05 
11567 1 -2.34709 0.664141 6.83028 0 0 0 176.814 -583.253 -85965.3 -0.73383 -65471.8 -39.8079 1786.99 -21168.7 -7103.01 0.05 
13012 1 -1.0543 -0.637962 6.88483 0 0 0 394.42 184.985 -84787.3 0 30845.2 -39.8079 21567.3 -6382.23 -849.642 0.05 
13755 1 -0.90306 -0.279714 6.84864 0 0 0 3.04535 472.909 -85593.1 0 21.7963 -39.8079 -25575.7 30462.9 -6314.97 0.05 
9416 1 -3.55985 0.058445 6.86458 0 0 0 848.964 -10.5578 -85264.2 1.94201e+07 -0.0845625 -39.8079 -16972.8 -56184.6 4454.39 0.05 
4329 1 -2.28568 0.242722 6.85237 0 0 0 436.396 -111.317 -84885.3 -0.626028 -11.3466 -39.8079 -2387.67 -15375.5 689.759 0.05 
13282 1 -3.21914 0.442279 6.87 0 0 0 370.897 -563.586 -84482.6 637.401 -381.761 -39.8079 20389 -43565.5 -11889.1 0.05 
11916 1 -1.86294 0.438015 6.85053 0 0 0 70.8084 -59.1583 -85731.7 -0.234484 -352.48 -39.8079 21488.1 5883.66 -749.099 0.05 
11564 1 -3.51658 0.302968 6.9219 0 0 0 317.012 85562.4 -82607.4 2.49867e+06 -32.5721 -39.8079 261.991 23243.1 7058.2 0.05 
10082 1 -0.0747193 -0.852167 7.0016 0 0 0 1.701 56149.1 -26.1687 3.48812e+06 -7.71709e+07 1.21858e+07 -61890.3 -1170.4 -35014 0.05 
14013 1 -3.30284 -0.821147 7.00185 0 0 0 2.62301 1565.45 0.763673 1.60126e+06 2.876e+07 532445 -884.043 4.95296 3582.54 0.05 
196 1 -3.09803 -0.814486 7.01002 0 0 0 0.318716 1998.96 -169.427 127329 1.83199e+07 -8604.64 -11424 465.38 2116.32 0.05 
12327 1 -1.10087 -0.815705 7.00053 0 0 0 0.767267 706.839 1.24645 677815 2.40018e+07 423436 -5585.78 55.8573 3926.57 0.05 
6695 1 -0.781352 -0.819559 7.00085 0 0 0 -0.158495 1015.22 -1.94117 0 3.27941e+07 -39.8079 -1105.73 -1.7622 291.429 0.05 
13957 1 -0.598615 -0.807957 6.98347 0 0 0 -1.05416 629.493 -81688.1 -5.65187e+06 3.79077e+07 7.78068e+08 57265.4 21101.5 -1571.05 0.05 
13221 1 -0.460269 -0.82193 6.99775 0 0 0 1.25691 1001.99 -269.101 275274 3.0092e+07 1.48098e+06 -9262.51 -3273.1 -613.349 0.05 
9943 1 -2.93026 -0.764906 7.00927 0 0 0 138.722 519.418 -561.146 -4.03613e+06 1.47673e+07 -1.30158e+06 -806.86 12541.8 -1801.99 0.05 
13855 1 -1.76208 -0.75504 7.00251 0 0 0 38.4587 282.101 -77.5675 -413044 4.9467e+06 1.53468e+06 -3229.66 3733.67 -5599.67 0.05 
12243 1 -0.703719 -0.749228 7.00115 0 0 0 72.5671 304.194 -27.5321 -5.87568e+06 3.29234e+07 -4.77632e+08 -5598.53 466.61 -7837.29 0.05 
11028 1 -0.585258 -0.764764 7.00007 0 0 0 0.374168 249.226 -287.809 -3.96753e+06 -1.20076e+07 -5.52251e+08 -5692.25 104.33 4960.62 0.05 
5466 1 -0.115577 -0.781416 7.00574 0 0 0 -0.817218 223.711 -134.433 -3.48812e+06 3.2268e+08 -1.21859e+07 -10894 -3181.67 -8983.39 0.05 
13426 1 -3.28407 -0.733387 7.0083 0 0 0 230.08 179.728 0.27878 -1.38823e+06 7.43533e+06 -474859 -1170.11 3586.86 -75.4924 0.05 
9896 1 -3.06488 -0.702291 7.00916 0 0 0 310.488 215.588 -235.093 39.0461 219029 -39.8079 -559.755 -954.382 -3468.77 0.05 
11386 1 -2.48004 -0.715964 7.00558 0 0 0 283.658 260.612 -189.377 -1.04337 350652 -39.8079 1642.02 7663.69 -797.809 0.05 
11448 1 -3.35067 -0.659154 7.00498 0 0 0 340.112 17.7848 -159.31 -283681 2.59982e+07 -311435 -5431.52 -2004.8 -47.7443 0.05 
9043 1 -2.27582 -0.662272 7.00112 0 0 0 336.617 0.650639 -4.94758 -0.610454 61928.9 -39.8079 234.082 1460.24 -132.83 0.05 
9387 1 -1.88381 -0.633477 6.99984 0 0 0 362.588 410.205 -203.909 -0.245002 27260.5 -39.8079 -10148.1 -3104.27 4983.85 0.05 
13214 1 -1.70088 -0.640018 7.00764 0 0 0 338.387 265.178 -157.063 -40183.2 267166 -181196 1732.1 2165.74 6029.11 0.05 
13698 1 -0.543929 -0.633963 7.00015 0 0 0 359.713 284.331 -237.99 -313360 1.38097e+07 815393 961.19 -101.888 2776.1 0.05 
3890 1 -3.45348 -0.604561 7.00377 0 0 0 445.006 1.90071 -183.16 227964 12712.6 -39.8079 -1069.1 10032.3 850.346 0.05 
14036 1 -2.37112 -0.626942 7.00019 0 0 0 394.27 174.691 -77.2312 -0.781576 22829 -39.8079 -5492.48 5111.42 -5038.93 0.05 
13329 1 -1.32752 -0.594322 7.00407 0 0 0 430.604 256.346 -0.00468233 -0.0869404 9829.16 -39.8079 -1941.81 4204.42 -4716.37 0.05 
5912 1 -0.354817 -0.597869 7.0015 0 0 0 424.27 404.867 0.0856442 0 10737.6 -39.8079 -7199.26 4451.28 2980.28 0.05 
11316 1 -2.81067 -0.55723 7.00165 0 0 0 287.696 210.02 -3.93189 -1.60959 4066.24 -39.8079 -3944.5 4585.05 -5793.04 0.05 
11479 1 -2.4574 -0.534396 7.0019 0 0 0 300.337 220.17 -309.735 1.33532e+06 193907 -110414 -3223.51 -6359.72 6500.15 0.05 
7434 1 -1.8234 -0.551351 7.0083 0 0 0 25.5294 10415.5 -145.524 5.34938e+06 2.10701e+08 -5.27237e+08 2064.03 1736.78 653.888 0.05 
12594 1 -0.81321 -0.548614 7.00678 0 0 0 302.487 284.368 -2.33133 301244 -280508 -453221 -113.227 4240.5 4667.58 0.05 
10556 1 -0.707971 -0.539323 7.00916 0 0 0 307.594 342.223 -155.067 -758190 -630572 1.46672e+06 813.131 3113.6 -3361.94 0.05 
9307 1 -0.258821 -0.532239 7.00188 0 0 0 290.852 386.393 1.05982 0 2330.88 -39.8079 143.092 4711.92 1008.81 0.05 
12205 1 -3.11953 -0.503343 7.00344 0 0 0 227.826 80.5558 -78.4421 -556847 -152468 -922699 -4900.84 2278.92 4641.28 0.05 
7966 1 -2.02109 -0.518506 7.00054 0 0 0 271.21 261.386 -1.14498 -0.330734 1736.46 -39.8079 -5905.43 4623.78 3846.23 0.05 
3281 1 -1.80539 -0.501264 6.98941 0 0 0 80.5892 233.921 -81041.7 -1.13164e+07 5.72053e+08 2.12065e+09 28109.7 -792.349 -4879 0.05 
10984 1 -1.50211 -0.505632 6.99977 0 0 0 246.397 24.581 -391.757 -375227 335618 123343 -225.997 4299.06 4519.84 0.05 
13525 1 -1.37121 -0.48948 7.00897 0 0 0 217.236 324.595 -54.6952 -1.11297e+06 -506035 -313911 -3503.13 1946.52 4154.86 0.05 
9961 1 -3.54258 -0.451742 6.97843 0 0 0 472.767 181.997 -80476.7 1.3382e+07 2.31911e+07 5.13436e+08 29606.1 -24530.2 -9764.02 0.05 
5517 1 -3.42082 -0.433808 6.99996 0 0 0 6957.99 -2.79583 -1.33196 -2.90087e+07 571163 40936.7 25.9072 -5375.48 4403.46 0.05 
6295 1 -3.22245 -0.471637 7.00644 0 0 0 127.987 325.597 -202 679.962 669.833 -39.8079 -7466.71 412.582 5921.79 0.05 
13644 1 -2.15744 -0.46769 6.99987 0 0 0 110.888 0.566048 -157.235 -0.454947 620.215 -39.8079 5712.16 -318.792 4093.59 0.05 
7418 1 -1.68383 -0.449215 6.99734 0 0 0 0.890269 278.433 -264.707 -0.163763 435.102 -39.8079 181.889 -2164.34 1394.11 0.05 
3483 1 -0.638864 -0.470861 7.00939 0 0 0 132.384 131.984 -3.04289 758190 633953 -1.46679e+06 -4438.29 1639.88 2245.78 0.05 
6072 1 -3.06717 -0.415333 7.00525 0 0 0 1.1747 195.047 -100.731 2.15308e+06 -3.63728e+08 -1.31476e+07 -5481.04 -4309.4 2148.84 0.05 
11339 1 -2.07379 -0.371386 7.00425 0 0 0 2.59838 191.322 -312.221 -0.373169 106.134 -39.8079 -1529.45 677.272 4907.22 0.05 
12492 1 -1.42302 -0.402339 7.00638 0 0 0 0.290928 283.972 -444.797 -0.10206 183.587 -39.8079 -5414.35 134.491 4899.75 0.05 
2539 1 -1.1615 -0.407853 7.0089 0 0 0 1.33397 19.243 -0.329008 4.47806e+06 6.5315e+07 -1.23147e+06 -180.797 2.4661 -589.247 0.05 
6261 1 -0.775937 -0.371359 6.99641 0 0 0 0.281684 336.86 -308.997 0 106.084 -39.8079 -2696.97 3748.79 -391.03 0.05 
11157 1 -0.354936 -0.41052 7.00165 0 0 0 -0.363799 253.589 -0.0298653 0 212.735 -39.8079 -2619.93 -3.18921 5536.32 0.05 
12860 1 -0.240013 -0.40712 7.00328 0 0 0 3.33391 341.856 -0.663128 3.70334e+06 7.33582e+07 -1.92196e+06 1606.11 30.2624 -1188.06 0.05 
3298 1 -2.40067 -0.350053 7.0053 0 0 0 65.2207 251.122 -207.485 -0.845023 73.2398 -39.8079 -7407.33 4969.75 -8391.18 0.05 
13080 1 -1.629 -0.325595 7.00379 0 0 0 197.143 174.826 -0.755919 -0.147587 48.0529 -39.8079 -1215.14 1294.46 -11191.4 0.05 
11927 1 -1.26319 -0.327999 7.00106 0 0 0 190.333 0.469122 -2.4898 -0.0783092 50.0801 -39.8079 401.525 1441.54 -6199.21 0.05 
11626 1 -3.32865 -0.292569 7.00874 0 0 0 303.055 -0.212884 -265.272 6708.79 27.2288 -39.8079 4436.21 -2902.13 -4277.21 0.05 
12325 1 -2.51545 -0.290622 6.97384 0 0 0 569.195 150.322 -81711.3 -1.46894e+07 1.8237e+06 8.31858e+08 3348.94 12622.3 3673.03 0.05 
246 1 -1.97515 -0.305935 7.00776 0 0 0 260.68 227.106 -0.510882 -0.298458 34.278 -39.8079 -4401.5 1334.13 -10537.5 0.05 
13413 1 -0.751351 -0.271574 7.00804 0 0 0 2.32558 314.438 -73.4549 351107 882940 -38471.4 3119.73 84.2219 -3976.65 0.05 
12952 1 -2.76315 -0.219074 6.97181 0 0 0 195.133 498.659 -81800.5 -9.02351e+06 -7.07869e+06 4.9939e+08 -5470.42 13611.6 -4217.33 0.05 
13443 1 -2.62272 -0.23385 7.0037 0 0 0 313.393 306.637 -303.102 -1.49566 9.66108 -39.8079 -9285.9 -1777.63 1566.2 0.05 
4622 1 -1.81987 -0.213529 7.01013 0 0 0 247.524 -333.481 -1.49579 -0.214489 6.62288 -39.8079 1618.76 921.204 5554.22 0.05 
11055 1 -1.58522 -0.223304 7.00885 0 0 0 284.437 77.1732 -126 -0.136075 7.95616 -39.8079 -3994.61 5233.94 1669.15 0.05 
9031 1 -1.07483 -0.255454 7.00495 0 0 0 166.125 290.79 -0.201134 5.6585e+08 2.72889e+06 -6.55865e+06 -2060.56 919.82 5055.95 0.05 
8291 1 -0.433877 -0.22128 7.00944 0 0 0 0.427325 -44.5696 -242.264 0 7.66193 -39.8079 -1642.04 -5952.09 2099.96 0.05 
10863 1 -3.4992 -0.176239 7.00316 0 0 0 4459.72 -6.59487 -474.659 -21778.5 -1.04249e+06 -1.71156e+06 -6559.12 444.403 5818.77 0.05 
11894 1 -3.17295 -0.176242 7.00154 0 0 0 96.4915 6.33319 -3.76657 157521 1.59787e+06 -1.00151e+06 -139.592 640.245 3897.93 0.05 
12122 1 -0.561737 -0.187112 6.99668 0 0 0 -0.486486 -280.04 -438.813 0 3.94924 -39.8079 1571.51 2273.6 -4490.38 0.05 
13658 1 -0.159218 -0.167213 6.99777 0 0 0 -0.134804 -114.744 -340.777 64117.8 43360.9 -65599.3 5126.81 -2453.77 -4775.54 0.05 
12127 1 -2.82774 -0.110368 7.00605 0 0 0 0.149019 -17.5509 -51.8905 -1.45122 0.627329 -39.8079 -1219.28 2152.68 -731.6 0.05 
8433 1 -1.98896 -0.116052 6.95454 0 0 0 90.5099 -85.5952 -82741.8 -0.307735 0.739814 -39.8079 -27629.9 -1613.83 63.4766 0.05 
1680 1 -1.26687 -0.116476 7.00784 0 0 0 202.092 75946 -238.256 -2.61772e+06 -9.35092e+08 1.45674e+07 -27215.2 4230.2 -10165.9 0.05 
7242 1 -1.01375 -0.157858 7.00554 0 0 0 7.02909 146.939 -270.866 1.20445e+07 9.17297e+08 -5.34141e+08 381.929 4964.5 -1984.06 0.05 
6839 1 -2.93568 -0.0589692 7.00059 0 0 0 91.1857 -7.34026 -0.645218 2.53689 0.0869173 -39.8079 -34.7173 3569.02 -2026.01 0.05 
9952 1 -1.27466 -0.0746942 7.00529 0 0 0 83.6367 -249.034 -1.76956 -6.12554e+06 5.78849e+08 -8.20788e+06 717.165 3137.31 -3041.19 0.05 
13065 1 -0.446537 -0.0715899 7.00083 0 0 0 57.4706 -312.286 -3.93313 6.76099e+06 -1.94678e+08 4.99576e+06 4040.81 2354.39 356.78 0.05 
11753 1 -2.68279 -0.0071283 7.00387 0 0 0 155.372 226.883 -135.373 -361192 -1.70713e+08 -3.75683e+06 2320.22 1683.86 -104.927 0.05 
13038 1 -2.38275 -0.0444627 7.00935 0 0 0 162.89 70.8189 -292.319 -3.86784e+06 -1.13054e+08 3.99747e+06 5756.7 7019.22 -4038.6 0.05 
9721 1 -2.21224 -0.0450853 7.00071 0 0 0 123.04 -81.2094 0.109608 -0.520269 0.0382336 -39.8079 1015.05 4811.97 -4938.27 0.05 
11177 1 -1.65784 -0.0160048 7.00075 0 0 0 141.442 260.946 -198.959 -1.12567e+06 -454071 -123058 -3999.43 11872 -1660.96 0.05 
10773 1 -0.272823 -0.0406052 7.00038 0 0 0 126.001 218.709 -136.875 0 0.0278134 -39.8079 4214.1 7977.33 -7016.14 0.05 
9438 1 -3.49088 0.0217164 7.00351 0 0 0 4685.83 -62.8964 -167.934 -6.664e+07 -263121 348359 -990.759 -5518.5 -1062.16 0.05 
1157 1 -1.05249 0.0220068 7.00782 0 0 0 115.779 0.284654 -0.332925 0 -0.00437154 -39.8079 -34.9352 4161.11 2477.71 0.05 
12444 1 -0.778867 0.0167962 7.00661 0 0 0 9.11166 133335 -164.407 -5.19098e+07 -2.0755e+09 -4.36274e+06 29215.6 -2189.81 -18671.8 0.05 
2032 1 -0.422475 0.0486393 6.99915 0 0 0 1.15672 -302.125 -333.327 0 -0.0481824 -39.8079 5672.86 1259.79 -199.496 0.05 
5587 1 -2.27439 0.0582506 7.00805 0 0 0 49.1309 -4.26762 -94.5659 -531523 -8.21933e+07 -3.98195e+06 71.025 5912.14 -1535.79 0.05 
4228 1 -2.03765 0.0882348 7.00415 0 0 0 119.611 -87.8968 -1.67866 -0.3434 -0.305324 -39.8079 1024.1 4523.61 4066.53 0.05 
5683 1 -1.9024 0.0567542 7.00453 0 0 0 27.5224 -107.882 -0.411554 994149 -99014.1 19788.1 846.903 984.409 -5163.46 0.05 
9104 1 -0.71369 0.0637686 7.00927 0 0 0 92.5949 35.5606 -194.453 3.29502e+07 7.27764e+08 5.40394e+06 3156.5 8648.34 -3672.8 0.05 
11421 1 -3.49361 0.154432 7.00314 0 0 0 4597.18 65.0321 -181.204 -3.17786e+07 424269 -1.10601e+06 -1607.84 -2317.94 2342.43 0.05 
1592 1 -1.43808 0.11985 7.00629 0 0 0 175.404 187.122 -225.648 -0.104734 -0.823002 -39.8079 -2198.6 63.7717 3932.12 0.05 
8636 1 -0.448635 0.156045 7.00615 0 0 0 120.445 -413.901 -0.683934 0 -2.03087 -39.8079 4452.07 4363.29 3557.15 0.05 
3720 1 -0.32146 0.116301 7.00092 0 0 0 143.364 313.586 -1.43712 0 -0.745073 -39.8079 -3241.05 5521.36 1523.92 0.05 
11518 1 -3.24936 0.184555 7.00122 0 0 0 3.8936 -225.388 -229.923 1165.51 -3.74887 -39.8079 -2998.39 -2600.31 5901.16 0.05 
8568 1 -3.02179 0.187227 7.00797 0 0 0 1.94803 -311.359 -0.183413 17.9495 -3.9585 -39.8079 3638.85 36.8077 3548.09 0.05 
11832 1 -2.59853 0.186211 7.0021 0 0 0 4.56071 99.0722 -2.75077 -1.41367 -3.87765 -39.8079 -3087.6 77.6596 2571.15 0.05 
11037 1 -1.58235 0.169776 7.00124 0 0 0 73.8741 40.2106 -118.72 -0.135359 -2.75065 -39.8079 -1760.1 3769.79 26.9101 0.05 
5472 1 -1.06038 0.185043 7.00205 0 0 0 -0.480115 0.438001 -0.479911 0 -3.78649 -39.8079 -36.5086 0.40685 1.12942 0.05 
13760 1 -3.57195 0.253049 6.99969 0 0 0 1545.84 -24.4417 -414.51 2.70198e+07 -799433 106744 4493.74 10176.4 4352.2 0.05 
10467 1 -3.3908 0.224348 7.00623 0 0 0 27.345 -84.575 -0.862328 3.0992e+07 364219 -1.25793e+06 875.373 1070.9 -3738.19 0.05 
3741 1 -1.25446 0.222249 7.0102 0 0 0 0.444528 -331.801 -0.221794 -0.0772223 -7.80155 -39.8079 -7.20369 -1.50365 1997.48 0.05 
13514 1 -0.206694 0.248371 7.00896 0 0 0 -0.268736 -109.382 -371.923 0 -12.5571 -39.8079 8674.87 -3883.3 1778.3 0.05 
6836 1 -0.737039 0.275115 7.002 0 0 0 -0.487483 5.25186 -288.832 -620459 456901 -483868 1008.86 4846.44 -0.04823 0.05 
5181 1 -3.30959 0.343468 7.00141 0 0 0 340.183 -308.945 -1.13246 4291.61 -65.3648 -39.8079 3858.65 5791.69 -7304.2 0.05 
5457 1 -2.82871 0.322912 7.00441 0 0 0 219.112 0.624044 -65.9054 -1.44017 -45.8885 -39.8079 -2818.02 6535.62 -4939.71 0.05 
4861 1 -2.72139 0.353247 7.00871 0 0 0 390.331 172.774 -189.603 -1.77485 -77.4026 -39.8079 3405.24 3024.8 -9268.54 0.05 
9264 1 -2.58649 0.318293 7.01009 0 0 0 196.656 107.264 -4.58153 180049 2.08297e+08 8.555e+06 -2728.88 5285.45 -2553.04 0.05 
7879 1 -2.47058 0.352855 7.01009 0 0 0 381.341 -158.114 -2.83237 1.70594e+07 -4.62091e+08 1.38823e+07 4815 5586.99 -8337.71 0.05 
13743 1 -2.1365 0.354937 6.99941 0 0 0 354.843 -305.044 -240.579 -0.432599 -79.703 -39.8079 8948.85 2256.48 -7214.97 0.05 
12717 1 -1.96313 0.365616 7.00124 0 0 0 380.489 -83.5513 -1.84469 4.42958e+06 1.87841e+08 -5.18271e+06 2005.96 5471.13 -1585.34 0.05 
5648 1 -1.35449 0.329213 7.00356 0 0 0 75.1599 -35.9128 -1.17864 -69087.8 1.0347e+06 -164718 3917.62 -39.5212 -11466.5 0.05 
13166 1 -1.21587 0.42083 7.00222 0 0 0 68437.8 217.472 -193.793 -9.10053e+08 -2.68168e+07 2.18084e+07 -1447.38 -77570.7 -31866 0.05 
11062 1 -0.771378 0.402303 7.00204 0 0 0 4.49395 -132.639 -4.06925 1.5325e+07 -8.79503e+08 -1.22319e+07 1236.71 -0.109436 1811.97 0.05 
12140 1 -0.470411 0.377289 7.00226 0 0 0 0.000543864 -290.737 -142.392 0 -117.705 -39.8079 10358.1 -2577.21 -2300.36 0.05 
12270 1 -0.206459 0.379924 7.00979 0 0 0 -0.264785 -105.306 -97.1214 0 -123.287 -39.8079 7066.34 3047.51 1720.32 0.05 
4450 1 -3.09376 0.432141 7.00507 0 0 0 328.08 -408.74 -1.18136 -745019 -8.75955e+07 -98517.3 3668.01 -2.5062 2588.91 0.05 
12193 1 -1.67844 0.457874 7.00939 0 0 0 55585.6 -12670.2 -304.448 -1.3248e+09 1.39037e+09 -2.90147e+07 -7426.72 -72492.4 -4304.48 0.05 
13401 1 -1.48951 0.442617 7.00392 0 0 0 312.966 -387.678 -422.11 -0.114553 -384.196 -39.8079 12578 5139.25 1399.98 0.05 
13997 1 -1.31688 0.434056 7.0015 0 0 0 332.086 -244.118 -1.36673 5.93244e+06 -1.66155e+08 -7.01486e+06 4176.8 394.276 -6086.28 0.05 
12657 1 -1.21152 0.45559 7.00115 0 0 0 139.514 -227.047 2.50432 4.96287e+08 1.02932e+07 -412779 947.978 159.201 8624.74 0.05 
13330 1 -0.0551439 0.42477 7.00396 0 0 0 2.47917 -320.846 -1.79262 1.04962e+06 807574 -1.02225e+06 -290.693 25.9451 3011.71 0.05 
12618 1 -3.57044 0.482304 6.99794 0 0 0 1311.93 -180.901 -329.484 2.82078e+07 1.45466e+06 -896114 4887.84 3081.92 2174.26 0.05 
2817 1 -2.63364 0.480601 7.00437 0 0 0 185.526 -106.407 -1.37682 -1.53238 -799.164 -39.8079 4744.23 -166.413 4628.64 0.05 