ITEM: TIMESTEP
0
ITEM: NUMBER OF ATOMS
1
ITEM: BOX BOUNDS ff ff ff
-10 10
-10 10
-10 10
ITEM: ATOMS id type fx fy fz x y z radius mux muy muz 
3 1 4.39118e-21 1.34144e-20 -2.65813e-07 0 0 -3.1 1 0 0 3.19883 
