ITEM: TIMESTEP
1
ITEM: NUMBER OF ATOMS
1
ITEM: BOX BOUNDS ff ff ff
-10 10
-10 10
-10 10
ITEM: ATOMS id type fx fy fz x y z radius mux muy muz 
3 1 -3.19108e-22 8.484e-21 2.16817e-07 0 0 -2 1 0 0 3.37658 
