ITEM: TIMESTEP
1
ITEM: NUMBER OF ATOMS
2
ITEM: BOX BOUNDS ff ff ff
-10 10
-10 10
-10 10
ITEM: ATOMS id type fx fy fz x y z radius mux muy muz 
2 1 9.03802e-21 -2.09109e-20 -2.52379e-08 0 0 -3.9 1 0 3.12841 0 
1 1 7.58262e-21 -3.32481e-21 2.52379e-08 0 0 0 1 0 3.12841 0 
