ITEM: TIMESTEP
2
ITEM: NUMBER OF ATOMS
2
ITEM: BOX BOUNDS ff ff ff
-10 10
-10 10
-10 10
ITEM: ATOMS id type fx fy fz x y z radius mux muy muz 
2 1 3.10674e-20 -1.9238e-20 -3.46158e-08 0 0 -3.6 1 0 3.12485 0 
1 1 -3.18596e-20 -1.90506e-20 3.46158e-08 0 0 0 1 0 3.12485 0 
