ITEM: TIMESTEP
0
ITEM: NUMBER OF ATOMS
2
ITEM: BOX BOUNDS ff ff ff
-10 10
-10 10
-10 10
ITEM: ATOMS id type fx fy fz x y z radius mux muy muz 
2 1 -8.77635e-21 -1.58721e-20 -4.87278e-08 0 0 -3.3 1 0 3.1199 0 
1 1 5.31281e-21 9.05234e-21 4.87275e-08 0 0 0 1 0 3.11989 0 
