ITEM: TIMESTEP
1
ITEM: NUMBER OF ATOMS
2
ITEM: BOX BOUNDS ff ff ff
-10 10
-10 10
-10 10
ITEM: ATOMS id type fx fy fz x y z radius mux muy muz 
2 1 -1.01405e-20 9.68555e-21 -7.06852e-08 0 0 -3 1 0 3.11277 0 
1 1 2.37062e-21 -5.73325e-21 7.06852e-08 0 0 0 1 0 3.11277 0 
