ITEM: TIMESTEP
2
ITEM: NUMBER OF ATOMS
2
ITEM: BOX BOUNDS ff ff ff
-10 10
-10 10
-10 10
ITEM: ATOMS id type fx fy fz x y z radius mux muy muz 
2 1 -3.35529e-20 -8.16698e-21 -3.86758e-08 0 0 -3.5 1 0 3.12338 0 
1 1 3.32944e-20 -8.4418e-21 3.86758e-08 0 0 0 1 0 3.12338 0 
