ITEM: TIMESTEP
3
ITEM: NUMBER OF ATOMS
1
ITEM: BOX BOUNDS ff ff ff
-10 10
-10 10
-10 10
ITEM: ATOMS id type fx fy fz x y z radius mux muy muz 
3 1 -1.01957e-20 -2.56797e-21 -1.31698e-08 0 0 -3.8 1 0 3.12778 0 
