ITEM: TIMESTEP
3
ITEM: NUMBER OF ATOMS
1
ITEM: BOX BOUNDS ff ff ff
-10 10
-10 10
-10 10
ITEM: ATOMS id type fx fy fz x y z radius mux muy muz 
3 1 8.00069e-21 4.02272e-21 -4.3366e-08 0 0 -2.8 1 0 3.1073 0 
