ITEM: TIMESTEP
0
ITEM: NUMBER OF ATOMS
1
ITEM: BOX BOUNDS ff ff ff
-10 10
-10 10
-10 10
ITEM: ATOMS id type fx fy fz x y z radius mux muy muz 
3 1 2.36332e-20 -1.15972e-20 -1.2167e-07 0 0 -2.1 1 0 3.06191 0 
