ITEM: TIMESTEP
0
ITEM: NUMBER OF ATOMS
2
ITEM: BOX BOUNDS ff ff ff
-10 10
-10 10
-10 10
ITEM: ATOMS id type fx fy fz x y z radius mux muy muz 
2 1 5.03479e-21 2.69896e-21 1.0383e-07 0 0 -2.8 1 0 0 3.21501 
1 1 1.4197e-22 7.63442e-21 -1.03762e-07 0 0 0 1 0 0 3.21482 
