ITEM: TIMESTEP
1
ITEM: NUMBER OF ATOMS
2
ITEM: BOX BOUNDS ff ff ff
-10 10
-10 10
-10 10
ITEM: ATOMS id type fx fy fz x y z radius mux muy muz 
2 1 -1.38766e-21 3.89232e-20 5.57854e-07 0 0 -2 1 0 0 3.35021 
1 1 1.01906e-21 2.3151e-21 -5.5726e-07 0 0 0 1 0 0 3.35098 
