ITEM: TIMESTEP
1
ITEM: NUMBER OF ATOMS
2
ITEM: BOX BOUNDS ff ff ff
-10 10
-10 10
-10 10
ITEM: ATOMS id type fx fy fz x y z radius mux muy muz 
2 1 -3.5889e-21 -4.03308e-20 1.43529e-07 0 0 -2.6 1 0 0 3.23358 
1 1 -4.28881e-22 1.2785e-20 -1.43429e-07 0 0 0 1 0 0 3.23358 
