ITEM: TIMESTEP
0
ITEM: NUMBER OF ATOMS
2
ITEM: BOX BOUNDS ff ff ff
-10 10
-10 10
-10 10
ITEM: ATOMS id type fx fy fz x y z radius mux muy muz 
2 1 3.69123e-21 -7.52068e-23 4.59037e-08 0 0 -3.4 1 0 0 3.18212 
1 1 -6.87943e-23 -1.35759e-20 -4.58774e-08 0 0 0 1 0 0 3.18207 
