ITEM: TIMESTEP
0
ITEM: NUMBER OF ATOMS
2
ITEM: BOX BOUNDS ff ff ff
-10 10
-10 10
-10 10
ITEM: ATOMS id type fx fy fz x y z radius mux muy muz 
2 1 5.94301e-23 6.05981e-20 8.93397e-08 0 0 -2.9 1 0 0 3.2075 
1 1 -4.41397e-22 -9.30873e-21 -8.9283e-08 0 0 0 1 0 0 3.20735 
