ITEM: TIMESTEP
1
ITEM: NUMBER OF ATOMS
2
ITEM: BOX BOUNDS ff ff ff
-10 10
-10 10
-10 10
ITEM: ATOMS id type fx fy fz x y z radius mux muy muz 
2 1 2.07688e-22 -2.79051e-20 1.71202e-07 0 0 -2.5 1 0 0 3.24545 
1 1 -6.36808e-22 -3.838e-21 -1.71078e-07 0 0 0 1 0 0 3.24545 
