ITEM: TIMESTEP
0
ITEM: NUMBER OF ATOMS
2
ITEM: BOX BOUNDS ff ff ff
-10 10
-10 10
-10 10
ITEM: ATOMS id type fx fy fz x y z radius mux muy muz 
2 1 -3.02444e-20 -1.68655e-20 -9.56598e-08 0 0 -2.3 1 0 3.07852 0 
1 1 3.02444e-20 -1.68655e-20 9.56598e-08 0 0 0 1 0 3.07834 0 
