ITEM: TIMESTEP
380000
ITEM: NUMBER OF ATOMS
14052
ITEM: BOX BOUNDS ff pp ff
-3.75 3.75
-1 1
0 10
ITEM: ATOMS id type x y z ix iy iz vx vy vz fx fy fz omegax omegay omegaz radius 
9412 1 -2.15412 -0.351517 3.33342 0 0 0 1.89464 14.6514 -171840 -0.45131 75.1184 -39.8079 -9278.38 13846.1 5701.27 0.05 
13821 1 -1.59504 -0.509755 3.3418 0 0 0 0.275183 105.58 -171857 -0.138557 1445.02 -39.8079 4511.3 3783.37 -2558.63 0.05 
13215 1 -0.227492 -0.0979997 3.43363 0 0 0 -0.415757 615.338 -169069 0 0.426817 -39.8079 56.5582 22216.6 -6775.57 0.05 
10206 1 -3.22281 0.648873 3.38792 0 0 0 223.627 -338.491 -170107 684.825 -41928.3 -39.8079 5136.14 -10974 -8981.36 0.05 
12795 1 -2.98149 -0.319489 3.44913 0 0 0 496.068 -76.1834 -168732 8.09813 43.2679 -39.8079 -10403.9 3184.62 3882.04 0.05 
7183 1 -0.750535 -0.358466 3.52655 0 0 0 -0.775491 310.248 -166448 0 84.7346 -39.8079 -12783.2 -9045.73 -4366.71 0.05 
4371 1 -1.71272 0.396649 3.50562 0 0 0 0.978136 -152.086 -167037 -0.173174 -165.815 -39.8079 17513.9 -2599.57 17.1685 0.05 
11397 1 -0.430412 0.754855 3.51732 0 0 0 0.381765 50.9811 -166689 0 -1.53011e+06 -39.8079 9019.46 16450.5 -5556.43 0.05 
12202 1 -1.69702 -0.492483 3.60851 0 0 0 179.822 82.5031 -164076 -0.16798 1013.83 -39.8079 9591.61 11592.2 3632.57 0.05 
10576 1 -3.26717 0.233833 3.606 0 0 0 288.584 -171.664 -164748 1687.47 -9.65808 -39.8079 -34639.3 13625.1 1203.32 0.05 
13017 1 -1.48729 -0.789068 3.64906 0 0 0 0.909248 593.205 -163153 -0.114106 6.88109e+06 -39.8079 -24189.3 -7438.98 3021.17 0.05 
8448 1 -0.483472 -0.796232 3.7674 0 0 0 0.508839 365.577 -159922 0 9.72152e+06 -39.8079 -5624.8 -12451.1 599.922 0.05 
11202 1 -0.848927 0.252978 3.79807 0 0 0 123.447 238.648 -159224 0 -13.6318 -39.8079 -9912.06 27218.7 2176.75 0.05 
13635 1 -1.11896 0.673858 3.78084 0 0 0 1.12983 -249.064 -159669 0 -87862.9 -39.8079 23219.4 1106.72 3265.97 0.05 
11049 1 -2.64772 -0.218531 3.8556 0 0 0 133.741 -5.57848 -157302 -1.57897 7.27787 -39.8079 18.8217 -15907.8 3665.63 0.05 
9405 1 -1.49261 0.138052 3.8631 0 0 0 152.194 300.962 -157447 -0.115181 -1.32534 -39.8079 -12606.9 -4243.76 -2423.02 0.05 
12319 1 -0.0529352 0.161733 3.86115 0 0 0 -0.207636 85.6351 -158386 0 -2.30758 -39.8079 -4133.99 98548.8 -3973.59 0.05 
11924 1 -1.4842 0.35887 3.92045 0 0 0 -0.0764035 132476 -156147 -0.113487 -85.3314 -39.8079 -6970.43 -4104.63 9276.99 0.05 
13254 1 -1.96443 0.529482 3.92276 0 0 0 -0.150737 27.638 -155765 -0.291485 -2195.72 -39.8079 -7367.64 -23625.4 3565.41 0.05 
12761 1 -0.541563 0.527722 3.90717 0 0 0 0.273628 -327.095 -156298 0 -2113.96 -39.8079 16792.2 -12762.6 -880.602 0.05 
11242 1 -1.16453 0.57706 3.96019 0 0 0 -0.0422323 -200.727 -155175 0 -6458.98 -39.8079 11388 -13157.8 4496.39 0.05 
8681 1 -0.510992 0.815778 4.00211 0 0 0 -0.925695 -817.928 -153783 0 -2.66513e+07 -39.8079 -50699.1 11980.1 1235.89 0.05 
12566 1 -1.898 0.270391 4.02545 0 0 0 77.5525 -317.074 -153211 -0.252484 -18.528 -39.8079 -16700 2013.15 5382.68 0.05 
12900 1 -3.48564 0.79711 4.03656 0 0 0 311.921 -544.272 -151839 719134 -1.01509e+07 -39.8079 -23920.6 40304.7 -3110.64 0.05 
12455 1 -2.35562 -0.306891 4.19072 0 0 0 1.67213 168.304 -148866 -0.750399 34.8457 -39.8079 7925.15 12355.5 -4376.61 0.05 
4032 1 -1.64333 0.246829 4.18651 0 0 0 0.993796 310.862 -148998 -0.151616 -12.2154 -39.8079 9126.22 20299.1 3259.07 0.05 
7677 1 -1.36622 0.535661 4.19186 0 0 0 -0.253297 -136.765 -149126 -0.0927065 -2511.29 -39.8079 -7104.88 7447.28 662.835 0.05 
8255 1 -3.29171 -0.428083 4.26398 0 0 0 175.981 68.4659 -146740 2868 293.164 -39.8079 -29492.7 -11449 4606.84 0.05 
10609 1 -1.77684 -0.322622 4.23695 0 0 0 1.51252 -165.219 -147349 -0.196569 45.6599 -39.8079 27672.1 -1753.56 3676.46 0.05 
11415 1 -0.875327 0.81615 4.21247 0 0 0 238.893 -975.651 -148344 0 -2.71959e+07 -39.8079 -96357.5 -10605.3 1405.99 0.05 
13781 1 -2.5245 -0.000974517 4.36063 0 0 0 31.3856 1.24119 -144580 -1.17299 3.77601e-07 -39.8079 5489.15 -18032.1 -657.816 0.05 
6492 1 -1.69696 0.756411 4.4006 0 0 0 110.525 -201.205 -142339 -0.167959 -1.6307e+06 -39.8079 16696.9 -12891.1 2389.16 0.05 
9165 1 -2.43611 -0.768879 4.46673 0 0 0 69.1415 63.7684 -141097 -0.928385 2.75819e+06 -39.8079 -44682.4 13410.2 -3042.24 0.05 
12363 1 -3.14802 -0.412698 4.43738 0 0 0 355.596 239.597 -142172 169.184 221.289 -39.8079 8225.56 -3555.31 5490.18 0.05 
6487 1 -3.35461 -0.323336 4.46148 0 0 0 396.846 223.839 -141599 12728.2 46.2239 -39.8079 12836.7 -22377.9 -7704.65 0.05 
7639 1 -0.954674 -0.191502 4.44178 0 0 0 -1.0914 165.7 -141912 0 4.31454 -39.8079 15457.6 21674 1082.4 0.05 
13278 1 -2.04271 0.802318 4.50417 0 0 0 147.39 -1199.91 -140221 -0.347395 -1.31656e+07 -39.8079 -69159.6 7820.31 8625.9 0.05 
11852 1 -2.18339 -0.53609 4.5532 0 0 0 209.781 264.789 -138928 -0.48458 2534.98 -39.8079 11897.3 19456.2 984.161 0.05 
10766 1 -2.77385 0.0182381 4.54805 0 0 0 274.323 -645.343 -139270 -1.77649 -0.00248417 -39.8079 -41199.7 -4787.51 941.861 0.05 
12207 1 -0.638597 0.257072 4.56513 0 0 0 -0.261889 -17318 -139063 0 -14.6589 -39.8079 -20262.1 -18969.9 601.985 0.05 
3777 1 -2.73617 -0.881101 4.59567 0 0 0 477.102 -46509.6 -137498 -1.79363 2.12526e+09 -39.8079 2511.96 -4716.12 -2155.11 0.05 
11713 1 -2.15176 -0.257302 4.60756 0 0 0 187.819 -811.193 -137639 -0.448749 14.7186 -39.8079 12852.1 -8865.71 6541.5 0.05 
9454 1 -2.46698 -0.12027 4.60967 0 0 0 23.8613 148.175 -137789 -1.00783 0.83262 -39.8079 8704.99 5585.32 2765.96 0.05 
3037 1 -0.655614 0.0306616 4.69548 0 0 0 51.9572 -3.79083 -135437 0 -0.0118828 -39.8079 -3964.81 -4136.05 3439.81 0.05 
9289 1 -0.142841 0.317714 4.72045 0 0 0 1.1644 -131.287 -134108 0 -41.968 -39.8079 -3624.17 -6460.88 4435.75 0.05 
10622 1 -2.53028 -0.515498 4.77208 0 0 0 149.526 3.09554 -132670 -1.19079 1629.67 -39.8079 -19546.9 30099.5 -1973.68 0.05 
9291 1 -0.582907 -0.164429 4.80595 0 0 0 0.867404 -55.9492 -132285 0 2.44904 -39.8079 9808.39 -21308.2 -682.456 0.05 
1298 1 -2.31934 -0.55219 4.87384 0 0 0 79.3297 274.925 -130642 -0.682696 3626.24 -39.8079 5833.24 8835.42 -5717.94 0.05 
6601 1 -3.06566 -0.239455 4.8729 0 0 0 222.059 156.804 -130485 39.5867 10.6969 -39.8079 1511.83 7088.19 3380.35 0.05 
8417 1 -2.52957 -0.241165 4.88654 0 0 0 9.37303 66461.2 -129879 -1.18859 11.0326 -39.8079 7807.19 -6700.52 1209.71 0.05 
10028 1 -3.44376 0.693758 4.98928 0 0 0 386.919 -271.765 -126502 165084 -165061 -39.8079 44558.4 21410.1 2807.04 0.05 
11208 1 -0.922926 0.315771 4.99824 0 0 0 -0.489781 -313.998 -127289 0 -40.5907 -39.8079 -18203.6 16205.6 -2992.52 0.05 
10922 1 -0.571878 0.812284 9.81632 0 0 0 78092.7 -1370.76 -1391.94 -4.0158e+08 -9.42242e+06 -1.94345e+07 -561.517 100107 -108680 0.05 
12881 1 -0.0783571 0.811711 9.80751 0 0 0 -14.9898 -922.793 -910.406 -1.86127e+06 -1.72553e+07 -1.43947e+07 -6543.92 -7773.99 1413.72 0.05 
11214 1 -1.90793 0.805464 5.03704 0 0 0 194.512 -976.263 -125393 -0.257885 -1.54571e+07 -39.8079 -70915.1 587.244 -4847.1 0.05 
2112 1 -1.37375 -0.397226 5.09812 0 0 0 111.049 -54.5442 -124158 -0.0938833 167.532 -39.8079 1233.91 1872.77 1305.06 0.05 
206 1 -2.29053 -0.760323 5.14425 0 0 0 83.4541 69.297 -122356 -0.633849 1.91738e+06 -39.8079 -18401.5 -18084.4 1061.65 0.05 
13478 1 -2.78788 0.407589 5.18843 0 0 0 449.637 -45.6361 -121456 -1.7355 -201.766 -39.8079 -10129.5 -26863.5 2476.92 0.05 
8660 1 -2.89505 -0.778912 5.23908 0 0 0 534.999 449.26 -119849 0.136097 4.29926e+06 -39.8079 14477.5 -14760.4 -8301.81 0.05 
9911 1 -2.30381 -0.192308 5.22285 0 0 0 90.3066 -152.24 -121287 -0.655844 4.38462 -39.8079 -9458.35 6156.14 792.257 0.05 
4730 1 -2.34755 0.570444 5.20094 0 0 0 334.723 -235.067 -121644 -0.734719 -5522.58 -39.8079 20948.1 -7961.38 -4366.16 0.05 
12559 1 -2.40856 -0.772037 5.25091 0 0 0 32464 46.501 -119774 -0.86287 3.16505e+06 -39.8079 -43723.8 -25383.5 -13862.8 0.05 
4350 1 -1.93918 -0.591296 5.32575 0 0 0 93.4383 630.484 -117650 -0.275845 9120.59 -39.8079 -12400.1 -42919.9 4136.68 0.05 
3659 1 -1.15941 -0.60828 5.34454 0 0 0 5.16334 430.747 -117801 0 13979.7 -39.8079 2733.13 11103 -565.496 0.05 
13047 1 -1.47139 -0.504084 5.29966 0 0 0 2.72496 121.49 -118930 -0.110969 1284.8 -39.8079 -5261.26 -2525.86 1985.84 0.05 
9947 1 -0.484491 -0.209367 5.33635 0 0 0 0.987894 -342.507 -117774 0 6.1184 -39.8079 -10103.5 12433.8 10082.9 0.05 
7680 1 -0.230754 0.660159 5.32561 0 0 0 -0.0890154 3.35252 -117826 0 -58177.4 -39.8079 -7670.81 -7350.76 -6526.56 0.05 
12040 1 -3.18982 0.0920869 5.44477 0 0 0 471.714 -356.738 -114849 363.886 -0.349756 -39.8079 15089.1 17082 -86.3417 0.05 
11268 1 -1.93231 -0.198283 5.47547 0 0 0 1.76208 -81.2142 -114222 -0.271768 4.93563 -39.8079 29864.8 -3618.73 -685.673 0.05 
7591 1 -0.677 0.71549 5.50123 0 0 0 -0.00815119 67.8607 -113236 0 -344844 -39.8079 14341 -7770.88 7549.9 0.05 
12192 1 -0.20643 0.179303 5.55006 0 0 0 2.37786 -93.6073 -112466 0 -3.36426 -39.8079 19408.4 -524.192 3250.39 0.05 
13500 1 -0.507366 0.0827973 5.58436 0 0 0 1.06112 -118915 -111014 0 -0.249708 -39.8079 38161.3 9002.19 3337.92 0.05 
8359 1 -2.18549 0.0548652 5.64423 0 0 0 77.7597 -401.521 -109586 -0.487077 -0.0696454 -39.8079 -5819.2 -7486.86 -11905.4 0.05 
10939 1 -2.73872 0.641377 5.65053 0 0 0 188.799 39.8336 -108479 -1.7957 -33923.1 -39.8079 3906.56 21481.6 603.853 0.05 
13249 1 -1.23534 -0.750301 5.6887 0 0 0 199.43 544.642 -107671 0 1.27278e+06 -39.8079 -27288.1 23601.4 -625.568 0.05 
9169 1 -1.88534 -0.00630031 5.66362 0 0 0 34.9853 72468.5 -109754 -0.245791 0.000102079 -39.8079 18361.9 -32131.1 19347.1 0.05 
13159 1 -3.55394 0.485735 5.69722 0 0 0 908.202 -477.741 -107355 1.42961e+07 -885.197 -39.8079 -17199.1 -37408.3 -2407.07 0.05 
8437 1 -3.41558 0.560465 5.68819 0 0 0 585.148 38137.2 -108235 68357.8 -4379.21 -39.8079 19327.7 -34445.8 -4832.02 0.05 
12032 1 -2.87664 -0.334545 5.79761 0 0 0 290.307 -84.2954 -104733 -0.508662 56.049 -39.8079 4790.94 -28224.8 3147.42 0.05 
13964 1 -0.207483 -0.242222 5.8101 0 0 0 -1.73267 -435.101 -104936 0 11.2449 -39.8079 -4294.31 -12211.4 -775.338 0.05 
6590 1 -3.5569 -0.131251 5.80521 0 0 0 735.92 131.805 -105312 1.66442e+07 1.11591 -39.8079 6267.37 -36918.6 8012.27 0.05 
9303 1 -0.349089 -0.119616 5.8065 0 0 0 0.589332 122.437 -105137 0 0.817681 -39.8079 -13928.1 -5148.38 933.195 0.05 
12315 1 -3.41886 0.442499 5.8007 0 0 0 198.563 122.553 -105651 75439.8 -383.345 -39.8079 29274.3 -39488.5 7802.64 0.05 
1859 1 -2.69944 0.26155 5.81548 0 0 0 110.629 -566.061 -104579 -1.73008 -15.865 -39.8079 -5784.6 4348.33 5790.38 0.05 
6890 1 -2.16715 0.313503 5.86112 0 0 0 130.388 247.473 -103525 -0.465771 -39.0392 -39.8079 2141.05 14005.6 -3014.62 0.05 
4674 1 -1.59953 0.565953 5.84751 0 0 0 169.282 83.8324 -103803 -0.139711 -4972 -39.8079 24967.3 -9431.76 9902.63 0.05 
271 1 -3.47281 -0.159614 5.88406 0 0 0 266.89 194.947 -103281 447574 2.20112 -39.8079 -6456.94 40297.8 -4579.49 0.05 
13236 1 -3.13773 -0.106277 5.88291 0 0 0 271.394 -26401 -102743 140.747 0.554639 -39.8079 1781.1 -1637.86 4576.29 0.05 
11483 1 -1.88838 -0.717955 5.94243 0 0 0 4.93022 4887.41 -101314 -0.247379 376224 -39.8079 65648.3 -5559.14 -2364.46 0.05 
7042 1 -1.68982 0.421825 5.9824 0 0 0 223.827 -12654.7 -100089 -0.165663 -261.318 -39.8079 -34206.3 -5516.62 3736.18 0.05 
3372 1 -1.59224 -0.0171814 6.06008 0 0 0 4.82462 104.867 -98057.9 -0.137843 0.00207607 -39.8079 -23909.3 -10681.9 -2635.59 0.05 
13162 1 -0.413497 0.0433716 6.02397 0 0 0 109.41 261.21 -98328.8 0 -0.0339808 -39.8079 336.558 -9142.93 2716.89 0.05 
3963 1 -0.262172 0.568231 6.07218 0 0 0 2.44269 221.951 -97608.4 0 -5243.44 -39.8079 -5048.29 -19173.1 -6525.2 0.05 
10345 1 -3.09131 -0.704188 6.10398 0 0 0 128.2 5019.6 -96029.9 62.1165 233501 -39.8079 52479.7 4063.3 -1435.06 0.05 
8516 1 -0.701538 0.265939 6.07813 0 0 0 1.42313 -60.5683 -97581.6 0 -17.1379 -39.8079 2073.26 9071.94 8287.91 0.05 
10960 1 -1.21576 0.778183 6.07561 0 0 0 595.398 -3066.14 -97761.7 0 -4.16003e+06 -39.8079 -90095.7 -10669.7 9763.8 0.05 
13612 1 -1.51821 -0.179177 6.14512 0 0 0 62.0346 -322.345 -95748.3 -0.120531 3.35542 -39.8079 -15597.4 371.408 3250.97 0.05 
13505 1 -0.163274 -0.0883174 6.1444 0 0 0 153.17 69735 -96226 0 0.306231 -39.8079 23766.4 5473.26 -5383.39 0.05 
4198 1 -1.48524 -0.0450732 6.13056 0 0 0 89.7897 67.2626 -96374.1 -0.113695 0.0382022 -39.8079 -21743.3 -3519.48 1061.91 0.05 
11890 1 -2.84129 0.138671 6.13 0 0 0 451.004 -143.809 -96205.9 -1.27412 -1.34582 -39.8079 22358.7 -25560.3 3189.61 0.05 
10867 1 -3.06903 0.79198 6.14077 0 0 0 400.747 -490.734 -95278.5 42.0099 -7.90762e+06 -39.8079 -14545.6 26999.2 991.261 0.05 
13274 1 -1.34258 -0.795829 6.18892 0 0 0 153.741 208.398 -94381.9 -0.0891294 9.53174e+06 -39.8079 2351.61 -12550.2 -462.172 0.05 
9422 1 -1.45359 0.432447 6.2112 0 0 0 145.633 -279.522 -93780.3 -0.107581 -317.801 -39.8079 5125.03 2882.75 6268.6 0.05 
12344 1 -0.104795 -0.230491 6.23845 0 0 0 -0.974427 -381.27 -92491.4 0 9.08521 -39.8079 -1449.49 -3011.39 12858.7 0.05 
12661 1 -3.53596 0.281986 6.23394 0 0 0 618.508 -45.1973 -93168.8 5.94528e+06 -22.673 -39.8079 15991.1 -5875.18 -3027.09 0.05 
4108 1 -0.716718 -0.613201 6.28371 0 0 0 8.49039 343.133 -91544.4 0 15874.2 -39.8079 23231 11283.8 -603.078 0.05 
7105 1 -1.48448 -0.376544 6.32308 0 0 0 154.374 -258.265 -90828.2 -0.113544 116.176 -39.8079 15953.6 -388.134 9770.12 0.05 
11228 1 -0.852772 0.673309 6.2927 0 0 0 212.248 -292.226 -91138.1 0 -86395 -39.8079 26710.5 22515 882.167 0.05 
10394 1 -1.97833 -0.80235 6.35258 0 0 0 455.702 904.851 -89839.8 -0.300563 1.31868e+07 -39.8079 48274.2 4032.71 470.026 0.05 
10294 1 -1.68153 -0.714915 6.33437 0 0 0 8.9747 -85.3455 -90196.4 -0.163041 337957 -39.8079 15261.7 -5016.74 -2015.43 0.05 
6232 1 -3.38259 -0.588214 6.37107 0 0 0 598.027 593.146 -89029.1 26604.2 8455.93 -39.8079 -27584.8 35113.1 -8282.62 0.05 
11247 1 -2.37024 -0.0800074 6.37613 0 0 0 281.584 -280.537 -89138.6 -0.779783 0.224181 -39.8079 20176.5 16917.6 2779.55 0.05 
3780 1 -0.873706 -0.0779184 6.34779 0 0 0 214.749 -236.551 -90065.6 0 0.206324 -39.8079 10985.2 15940 -3369.77 0.05 
8380 1 -0.565825 -0.682493 6.4236 0 0 0 156.055 461.964 -88010.4 0 114958 -39.8079 -75.1218 -1963.71 6907.18 0.05 
11812 1 -2.01865 -0.410181 6.4659 0 0 0 8.26129 65.9612 -86739.4 -0.328912 211.433 -39.8079 -10600.1 -24162.6 9882.96 0.05 
1210 1 -0.287026 0.252392 6.48089 0 0 0 0.254153 226.035 -86541 0 -13.4905 -39.8079 28407.2 -2975.74 -16011.4 0.05 
11567 1 -2.34638 0.661808 6.48642 0 0 0 176.814 -583.315 -85965.3 -0.732474 -61083.4 -39.8079 1786.99 -21168.7 -7103.01 0.05 
13755 1 -0.903047 -0.277823 6.50627 0 0 0 3.04535 472.909 -85593.1 0 21.0913 -39.8079 -25575.7 30462.9 -6314.97 0.05 
9416 1 -3.55642 0.0584027 6.52352 0 0 0 866.493 -10.5578 -85264.2 1.6239e+07 -0.0843747 -39.8079 -16972.8 -56184.6 4454.39 0.05 
4329 1 -2.28394 0.242277 6.51283 0 0 0 436.396 -111.317 -84885.3 -0.623239 -11.256 -39.8079 -2387.67 -15375.5 689.759 0.05 
13282 1 -3.21766 0.440024 6.53207 0 0 0 370.897 -563.586 -84482.6 619.238 -365.968 -39.8079 20389 -43565.5 -11889.1 0.05 
11916 1 -1.86266 0.437778 6.5076 0 0 0 70.8084 -59.1586 -85731.7 -0.234345 -350.926 -39.8079 21488.1 5883.66 -749.099 0.05 
13012 1 -1.05272 -0.637222 6.54568 0 0 0 394.42 185.015 -84787.3 0 30219.7 -39.8079 21567.3 -6382.23 -849.642 0.05 
8433 1 -1.98859 -0.116394 6.62358 0 0 0 90.5099 -85.5952 -82741.8 -0.307487 0.747042 -39.8079 -27629.9 -1613.83 63.4766 0.05 
11564 1 -3.51531 0.645217 6.59147 0 0 0 319.409 85562.4 -82607.4 2.36638e+06 -37791.3 -39.8079 261.991 23243.1 7058.2 0.05 
13957 1 -0.598617 -0.805388 6.65709 0 0 0 -0.438965 650.67 -81583.4 0 1.5397e+07 -39.8079 59375.1 20431 -1552.29 0.05 
3281 1 -1.80507 -0.500051 6.66633 0 0 0 79.8529 308.958 -80747.1 -0.208107 1182.6 -39.8079 26017.5 -1559.52 -5358.65 0.05 
9961 1 -3.54067 -0.451002 6.65677 0 0 0 481.332 185.325 -80410.8 7.42639e+06 450.093 -39.8079 31142.8 -24806.9 -9770.97 0.05 
12325 1 -2.51318 -0.290023 6.64725 0 0 0 567.319 149.826 -81643.2 -1.13876 26.0576 -39.8079 3195.34 13151 3670.74 0.05 
12952 1 -2.76238 -0.217081 6.64473 0 0 0 194.592 498.246 -81769.9 -1.79408 7.08234 -39.8079 -5596.16 13792.8 -4217.11 0.05 
7835 1 -1.02322 -0.109721 6.71217 0 0 0 265.872 325.825 -79933.1 0 0.615377 -39.8079 -18124.5 -28720.3 5095.93 0.05 
13010 1 -2.89214 0.484106 6.73836 0 0 0 451.052 282.258 -78615.9 0.0201274 -856.865 -39.8079 11212.3 -23202.4 2727.87 0.05 
11203 1 -0.298513 0.76959 6.72891 0 0 0 59.4273 42.2832 -78279 0 -2.84451e+06 -39.8079 -16840.2 -19091.4 7106.99 0.05 
6997 1 -1.25697 -0.804574 6.78275 0 0 0 7.76568 2011.47 -77910.7 -0.0775337 1.47669e+07 -39.8079 104188 -3819 10772.9 0.05 
5927 1 -0.693442 -0.733977 6.76267 0 0 0 0.751385 4255 -78576.9 0 675467 -39.8079 45653.4 -463.853 2434.88 0.05 
12277 1 -2.53188 -0.703344 6.80142 0 0 0 325.726 565.127 -76782.4 -1.19575 226937 -39.8079 5654.59 -17783.4 -7973.42 0.05 
3539 1 -0.256083 -0.676947 6.83088 0 0 0 229.158 250.802 -76730.4 0 96651.4 -39.8079 -28886.6 8081.73 7369.33 0.05 
7469 1 -0.105058 -0.651844 6.83058 0 0 0 4.7581 46.7106 -76297.7 0 45657.2 -39.8079 -2407.67 -5808.57 -2764.24 0.05 
10018 1 -2.74536 -0.123781 6.80187 0 0 0 265.188 264.743 -77504.8 -1.79925 0.91637 -39.8079 -8288.21 -4563.39 -8281.17 0.05 
11555 1 -0.793605 -0.550294 6.88606 0 0 0 363.825 -220.85 -74082.9 0 3474.43 -39.8079 -11791.8 -17522.3 961.235 0.05 
11344 1 -0.267193 -0.565367 6.87408 0 0 0 5.43804 -4.49718 -75193.8 0 4904.73 -39.8079 23001.7 -936.71 4012.35 0.05 
6901 1 -0.0537509 0.0372525 6.87233 0 0 0 0.461508 -3.09134 -76635.4 0 -0.0214157 -39.8079 -22917.7 104160 1454.02 0.05 
12466 1 -2.08416 -0.513691 6.9514 0 0 0 298.954 151629 -73526.8 2.7685e+07 -1.24461e+09 6.1108e+08 3297.74 -9419.12 6526.16 0.05 
13458 1 -3.34282 -0.109747 6.94215 0 0 0 181.63 -40.5082 -73562.7 1.24097e+07 -9.12388e+07 2.84227e+08 18354 -12792.7 -4931.26 0.05 
2425 1 -2.46231 0.234855 6.92355 0 0 0 66.0808 471.966 -74051.8 -0.995389 -9.83976 -39.8079 5905.47 -5917.71 7310.86 0.05 
14013 1 -3.30283 -0.814837 7.00186 0 0 0 4.24368 1587.83 1.31023 1.67759e+06 1.73758e+07 596218 -836.875 4.90307 3442.29 0.05 
196 1 -3.09803 -0.806462 7.00934 0 0 0 0.506561 2011.55 -169.513 254422 8.07874e+06 -175061 -11388.4 463.11 2388.27 0.05 
12327 1 -1.10086 -0.812834 7.00053 0 0 0 1.22031 728.311 1.21361 718153 1.99404e+07 478817 -5505.3 68.6854 3951.88 0.05 
6695 1 -0.781353 -0.815438 7.00084 0 0 0 -0.206292 1043.99 -1.99882 -93038.6 2.58061e+07 -118204 -1097.78 -3.38069 289.643 0.05 
13221 1 -0.460263 -0.817868 6.99667 0 0 0 1.53834 1027.49 -267.712 276277 2.1777e+07 1.14851e+06 -9047.15 -3312.2 -655.847 0.05 
9943 1 -2.92971 -0.7628 7.00702 0 0 0 134.606 533.881 -562.358 -4.30904e+06 1.45439e+07 -1.15038e+06 -1222.19 12382.2 -2006.97 0.05 
13855 1 -1.76192 -0.753901 7.0022 0 0 0 38.0341 287.098 -76.0173 -447910 5.1818e+06 1.60861e+06 -3328.44 3698.7 -5532.32 0.05 
12243 1 -0.703415 -0.747963 7.00014 0 0 0 79.2819 320.229 -334.437 0 1.15949e+06 -39.8079 -5970.99 2279.07 -7839.35 0.05 
11028 1 -0.585259 -0.76378 6.99854 0 0 0 -0.232934 246.428 -392.645 314808 1.94641e+06 -918751 -3562.31 -595.073 4983.01 0.05 
5466 1 -0.115584 -0.779838 7.0052 0 0 0 -1.06776 486.955 -133.28 0 4.48369e+06 -39.8079 -10239 -3204.55 -3795.08 0.05 
13426 1 -3.28314 -0.732646 7.0083 0 0 0 242.292 195.596 -0.765472 3.35551e+07 2.89406e+07 -2.00914e+06 -1278.54 3831.63 -508.124 0.05 
9896 1 -3.06364 -0.701472 7.00821 0 0 0 310.463 114.376 -236.632 2.8999e+06 -4.79655e+08 1.04972e+07 3238.35 -946.26 -4065.58 0.05 
11386 1 -2.4789 -0.714921 7.00419 0 0 0 283.764 261.115 -428.151 -1.04022 338024 -39.8079 382.913 1519.21 -801.951 0.05 
11448 1 -3.34929 -0.659018 7.00434 0 0 0 353.409 55.1398 -160.449 2.96095e+07 5.0411e+07 -2.14455e+06 -5978.8 -1725.66 -270.459 0.05 
9043 1 -2.27447 -0.662269 7.0011 0 0 0 336.617 0.711682 -4.94762 -0.608363 61923.9 -39.8079 234.082 1460.24 -132.83 0.05 
9387 1 -1.88236 -0.631836 6.99902 0 0 0 362.588 410.231 -203.909 -0.244253 26065.3 -39.8079 -10148.1 -3104.27 4983.85 0.05 
13214 1 -1.69952 -0.638957 7.00701 0 0 0 338.335 265.451 -157.255 -179752 335372 -293372 1732.34 2166.68 6030.22 0.05 
13698 1 -0.54249 -0.632853 6.9992 0 0 0 358.889 228.861 -237.501 -5.03979e+06 -2.56286e+08 -739251 1667.74 -115.602 2407.39 0.05 
10082 1 -0.0747199 -0.628699 7.00137 0 0 0 0.630982 55542.2 -106.053 1.90425e+07 -5.35648e+08 -1.11303e+07 -61648.2 -2328.98 -32132.6 0.05 
3890 1 -3.4517 -0.604554 7.00304 0 0 0 445.224 1.91324 -183.16 214704 12710.1 -39.8079 -1069.1 10032.3 850.346 0.05 
14036 1 -2.36954 -0.626243 6.99988 0 0 0 394.27 174.714 -77.2312 -0.778339 22404.1 -39.8079 -5492.48 5111.42 -5038.93 0.05 
13329 1 -1.3258 -0.593296 7.00407 0 0 0 430.604 256.355 -0.00472157 -0.0866943 9582.5 -39.8079 -1941.81 4204.42 -4716.37 0.05 
5912 1 -0.353121 -0.596251 7.00138 0 0 0 423.986 404.208 -70.2554 0 10312.3 -39.8079 -8306.81 7485.19 2955.8 0.05 
11316 1 -2.80952 -0.55639 7.00163 0 0 0 287.696 210.024 -3.93193 -1.61807 3989.02 -39.8079 -3944.5 4585.05 -5793.04 0.05 
11479 1 -2.45619 -0.533515 7.00066 0 0 0 301.784 220.403 -309.858 1.57266e+06 257143 -142128 -3232.79 -6309.79 6484.26 0.05 
3581 1 -1.73981 -0.535247 7.0094 0 0 0 308.037 229.931 -385.475 -2.17486e+06 4.96395e+07 191589 -9014.52 2398.09 3542.32 0.05 
12594 1 -0.812004 -0.547481 7.00625 0 0 0 301.99 281.727 -327.435 -549723 -124188 -563436 228.486 7039.6 4653.41 0.05 
10556 1 -0.706741 -0.537957 7.00838 0 0 0 306.904 340.694 -250.767 -816778 -694325 1.33824e+06 1413.62 -1125.17 -3319.68 0.05 
9307 1 -0.257658 -0.530677 7.00139 0 0 0 289.227 447.379 -289.663 223273 7.15038e+08 6.85777e+06 2173.94 3442.89 1581.27 0.05 
12205 1 -3.11862 -0.503021 7.00312 0 0 0 227.445 80.3304 -79.1505 -88431 -378268 -378088 -4864.67 2279.16 4621.72 0.05 
7966 1 -2.02 -0.517436 7.00052 0 0 0 272.401 360.659 -48.2102 -2.0142e+07 8.02361e+08 -4.02458e+08 -3592.67 3105.64 702.506 0.05 
7434 1 -1.82329 -0.509797 7.00736 0 0 0 27.832 10320.9 -244.796 -1875.01 -1.5128e+08 -2.25843e+06 74.1416 2605.76 -267.437 0.05 
10984 1 -1.50113 -0.505533 6.9982 0 0 0 246.033 24.8992 -391.652 -407862 373455 -73155.4 -234.295 4296.95 4497.51 0.05 
13525 1 -1.37034 -0.488183 7.00875 0 0 0 216.225 324.075 -54.9963 -873969 -554137 -288897 -3512.32 1949.79 4180.09 0.05 
5517 1 -3.39304 -0.433818 6.99996 0 0 0 6931.65 -2.31118 -1.13995 -2.89494e+07 343603 439474 10.4268 -5766.45 3264.18 0.05 
6295 1 -3.22194 -0.470335 7.00564 0 0 0 127.987 325.598 -202 673.174 653.002 -39.8079 -7466.71 412.582 5921.79 0.05 
13644 1 -2.157 -0.468275 6.99924 0 0 0 109.981 -41.5864 -159.781 2.05436e+07 1.1533e+09 -1.96586e+08 7270.25 -243.545 3320.86 0.05 
7418 1 -1.68382 -0.448102 6.99628 0 0 0 0.890269 278.433 -264.707 -0.163762 426.026 -39.8079 181.889 -2164.34 1394.11 0.05 
3483 1 -0.638333 -0.470332 7.00937 0 0 0 133.164 132.642 -4.44876 816778 697619 -1.33832e+06 -4390.26 1591.32 2249.73 0.05 
6072 1 -3.06716 -0.414997 7.00485 0 0 0 2.91536 64.5148 -100.241 771004 8220.31 69265.9 -390.387 -4242.44 1273.74 0.05 
11339 1 -2.07377 -0.371418 7.003 0 0 0 5.45901 -1.02692 -312.437 2.87152e+07 6.65414e+08 -5.4328e+06 546.221 693.041 9526.3 0.05 
12492 1 -1.42302 -0.401204 7.0046 0 0 0 0.290928 283.972 -444.797 -0.10206 179.885 -39.8079 -5414.35 134.491 4899.75 0.05 
2539 1 -1.16149 -0.407633 7.00889 0 0 0 5.26006 92.6339 -1.9937 2.25564e+06 7.79989e+07 -1.91655e+06 -870.852 -13.3604 -2910.47 0.05 
6261 1 -0.775936 -0.370012 6.99518 0 0 0 0.281684 336.86 -308.997 0 103.613 -39.8079 -2696.97 3748.79 -391.03 0.05 
11157 1 -0.354937 -0.409495 7.00165 0 0 0 0.0642846 269.557 -0.744564 1.64634e+06 5.27433e+07 -2.21699e+06 -3060.6 -6.94354 5188.36 0.05 
12860 1 -0.239998 -0.405727 7.00327 0 0 0 3.68107 348.577 -0.849154 0 195.11 -39.8079 1564.86 35.3633 -1080.75 0.05 
3298 1 -2.40041 -0.349049 7.00447 0 0 0 65.2207 251.122 -207.485 -0.84444 71.9785 -39.8079 -7407.33 4969.75 -8391.18 0.05 
13080 1 -1.62821 -0.324895 7.00379 0 0 0 197.143 174.826 -0.755958 -0.147369 47.4789 -39.8079 -1215.14 1294.46 -11191.4 0.05 
11927 1 -1.26242 -0.327995 7.00105 0 0 0 190.358 7.41059 -2.47099 86523.1 5.78694e+07 70352.8 307.176 1441.53 -6071.28 0.05 
11626 1 -3.32744 -0.29257 7.00768 0 0 0 303.062 -0.212857 -265.272 6517.19 27.2292 -39.8079 4436.21 -2902.13 -4277.21 0.05 
246 1 -1.97411 -0.305027 7.00775 0 0 0 260.68 227.106 -0.510922 -0.297771 33.7467 -39.8079 -4401.5 1334.13 -10537.5 0.05 
13413 1 -0.751303 -0.270315 7.00775 0 0 0 99.1243 313.627 -71.0582 5.50868e+08 -1.32217e+07 2.42694e+06 3098.26 521.286 -4454.73 0.05 
13443 1 -2.62147 -0.232623 7.00249 0 0 0 313.393 306.637 -303.102 -1.49142 9.44703 -39.8079 -9285.9 -1777.63 1566.2 0.05 
4622 1 -1.81888 -0.214767 7.01012 0 0 0 246.975 -180.562 -5.57934 -3.70544e+06 5.37777e+08 -2.72098e+07 1214.91 920.788 5594.8 0.05 
11055 1 -1.58409 -0.222995 7.00835 0 0 0 284.437 77.1732 -126 -0.135791 7.91063 -39.8079 -3994.61 5233.94 1669.15 0.05 
9031 1 -1.0736 -0.254298 7.00495 0 0 0 334.719 288.981 -1.45957 0 13.9553 -39.8079 -2048.04 1858.17 5458.71 0.05 
8291 1 -0.433878 -0.221704 7.00847 0 0 0 -1.38399 -201.528 -246.276 1.41723e+06 -2.09247e+08 -1.38253e+06 -219.793 -5936.84 865.123 0.05 
10863 1 -3.4814 -0.176268 7.00126 0 0 0 4433.61 -8.16371 -475.024 -4.3599e+07 -3.17637e+06 98818.7 -6534.71 -58.4874 6026.38 0.05 
11894 1 -3.17256 -0.176212 7.00152 0 0 0 96.5398 8.43425 -4.90532 46945.6 2.24312e+06 -1.19326e+06 -188.15 600.805 3823.13 0.05 
12122 1 -0.561739 -0.188232 6.99493 0 0 0 -0.486486 -280.04 -438.813 0 4.03983 -39.8079 1571.51 2273.6 -4490.38 0.05 
13658 1 -0.159219 -0.167672 6.99641 0 0 0 -0.0447073 -114.198 -340.82 2.17348e+06 4.41204e+07 2.3435e+06 5120.1 -2453.16 -4786.64 0.05 
12127 1 -2.82774 -0.110436 7.00551 0 0 0 0.658221 -16.5174 -176.056 -1.45122 0.628582 -39.8079 -349.767 7175.76 -685.997 0.05 
7242 1 -1.01374 -0.156707 7.00389 0 0 0 2.10499 301.785 -440.675 0 2.06161 -39.8079 -4537.36 4110.27 -3968.13 0.05 
6839 1 -2.93531 -0.0580742 7.00059 0 0 0 91.9205 286.016 -1.03183 2.5068 0.0829242 -39.8079 -1689.84 3566.96 -6522.54 0.05 
8449 1 -2.52375 -0.0607924 7.00939 0 0 0 162.583 75.4719 -328.923 -1.1707 0.0954597 -39.8079 -2773.26 8870.92 -262.636 0.05 
9952 1 -1.27433 -0.0749025 7.00529 0 0 0 84.0763 1.56742 -1.39536 -0.0797249 0.182353 -39.8079 475.418 3136.13 -2102.83 0.05 
13065 1 -0.446299 -0.0730818 7.00082 0 0 0 60.1186 -390.178 -1.95419 0 0.168874 -39.8079 5055.88 2363.08 -659.839 0.05 
11753 1 -2.68217 -0.00653445 7.00333 0 0 0 158.284 81.7228 -133.226 1.67676e+06 397548 -376336 5739.67 1739.11 -1487.9 0.05 
13038 1 -2.3821 -0.0442112 7.00818 0 0 0 162.655 53.7566 -292.28 1.10606e+07 -3.10527e+08 -5.758e+06 6066.82 7014.45 -3582.89 0.05 
9721 1 -2.21175 -0.0454101 7.00071 0 0 0 122.95 -80.6779 -14.1597 -2.5641e+06 1.39507e+07 -3.61314e+08 1210.36 4901.14 -4936.18 0.05 
11177 1 -1.65728 -0.0149388 6.99988 0 0 0 139.901 284.371 -268.813 -1.73431e+06 -867850 -499773 -7271.66 12477.8 -1382.42 0.05 
10773 1 -0.272319 -0.0397304 6.99983 0 0 0 126.001 218.709 -136.875 0 0.0260341 -39.8079 4214.1 7977.33 -7016.14 0.05 
9438 1 -3.47227 0.0214642 7.00284 0 0 0 4623.44 -63.0864 -167.891 -5.10103e+07 1.08441e+06 -1.37253e+06 -1054.35 -6518.38 -1936.4 0.05 
1157 1 -1.05203 0.0228571 7.00781 0 0 0 115.395 327.817 -0.866372 0 -0.00490012 -39.8079 -1803.03 4161.78 4188.08 0.05 
2032 1 -0.422471 0.0474308 6.99782 0 0 0 1.15672 -302.125 -333.327 0 -0.0446226 -39.8079 5672.86 1259.79 -199.496 0.05 
5587 1 -2.2742 0.0580101 7.00767 0 0 0 49.5544 -120.108 -97.6207 1.92953e+06 -1.23998e+08 1.90326e+06 4002.45 5944.27 -2211.39 0.05 
4228 1 -2.03717 0.0878832 7.00414 0 0 0 119.611 -87.8968 -1.6787 -0.343026 -0.301482 -39.8079 1024.1 4523.61 4066.53 0.05 
5683 1 -1.90228 0.0563224 7.00452 0 0 0 28.5218 -107.975 -0.388653 1.03236e+06 -89227.2 26707.7 848.266 1006.93 -5131.63 0.05 
8541 1 -1.63815 0.094559 6.9576 0 0 0 6.86351 25451 -73294.3 -0.150144 -0.380622 -39.8079 13423.6 -24549.3 -4350.63 0.05 
9104 1 -0.713324 0.0643733 7.0085 0 0 0 90.5217 82.572 -193.84 -256918 162556 1.36072e+06 4291.93 8574.72 -4092.62 0.05 
11421 1 -3.47527 0.154693 7.00242 0 0 0 4569.2 65.5071 -182.097 -3.74167e+07 831057 -1.32986e+06 -1604.44 -2820.05 1937.52 0.05 
1592 1 -1.43738 0.120598 7.00539 0 0 0 175.404 187.122 -225.648 -0.104608 -0.840197 -39.8079 -2198.6 63.7717 3932.12 0.05 
8636 1 -0.448153 0.154389 7.00615 0 0 0 120.445 -413.901 -0.683973 0 -1.9556 -39.8079 4452.07 4363.29 3557.15 0.05 
3720 1 -0.320887 0.117556 7.00092 0 0 0 143.364 313.586 -1.43716 0 -0.771953 -39.8079 -3241.05 5521.36 1523.92 0.05 
11518 1 -3.24935 0.183653 7.0003 0 0 0 3.89475 -225.388 -229.923 1165.14 -3.68032 -39.8079 -2998.39 -2600.31 5901.16 0.05 
8568 1 -3.02179 0.186328 7.00797 0 0 0 5.42651 41.216 -2.7852 1.68562e+07 5.4454e+08 -1.32978e+07 2077.62 28.4924 8434.12 0.05 
11832 1 -2.59852 0.186607 7.00209 0 0 0 4.56071 99.0722 -2.75081 -1.41361 -3.909 -39.8079 -3087.6 77.6596 2571.15 0.05 
11037 1 -1.58206 0.169937 7.00077 0 0 0 73.8741 40.2106 -118.72 -0.135286 -2.76018 -39.8079 -1760.1 3769.79 26.9101 0.05 
1680 1 -1.26607 0.185733 7.00689 0 0 0 198.602 75047.3 -236.476 -1.48647e+07 -1.20833e+09 1.41958e+07 -14739 4171.19 -9311.23 0.05 
5472 1 -1.06038 0.185455 7.00205 0 0 0 -0.58005 311.801 -1.09826 0 -3.81838 -39.8079 -2556.03 5.25948 2851.06 0.05 
13760 1 -3.56572 0.25295 6.99803 0 0 0 1566.51 -25.1719 -414.522 1.55916e+07 -679153 -127763 4430.98 9833.72 4314.15 0.05 
10467 1 -3.39063 0.22401 7.00623 0 0 0 55.3473 -84.3371 -1.51204 3.12196e+07 153414 150679 863.958 2263.28 -3793.21 0.05 
3741 1 -1.25446 0.220959 7.0102 0 0 0 2.55293 -233.764 -0.749774 1.7143e+07 5.81391e+08 495059 170.566 -8.00105 1488.91 0.05 
13514 1 -0.206695 0.247934 7.00747 0 0 0 -0.268736 -109.382 -371.923 0 -12.4592 -39.8079 8674.87 -3883.3 1778.3 0.05 
6836 1 -0.737035 0.275093 7.00084 0 0 0 -0.394837 69.5262 -289.144 -384699 611990 -670589 2529.49 4844.5 557.395 0.05 
5181 1 -3.30823 0.342233 7.0014 0 0 0 340.188 -308.945 -1.1325 4159.8 -63.9861 -39.8079 3858.65 5791.69 -7304.2 0.05 
5457 1 -2.82783 0.322915 7.00414 0 0 0 219.112 0.623998 -65.9054 -1.45014 -45.8904 -39.8079 -2818.02 6535.62 -4939.71 0.05 