ITEM: TIMESTEP
420000
ITEM: NUMBER OF ATOMS
14052
ITEM: BOX BOUNDS ff pp ff
-3.75 3.75
-1 1
0 10
ITEM: ATOMS id type x y z ix iy iz vx vy vz fx fy fz omegax omegay omegaz radius 
13821 1 -1.59504 -0.509332 2.65437 0 0 0 0.275183 105.582 -171857 -0.138557 1432.37 -39.8079 4511.3 3783.37 -2558.63 0.05 
9412 1 -2.15411 -0.351458 2.64606 0 0 0 1.89464 14.6515 -171840 -0.451302 75.0422 -39.8079 -9278.38 13846.1 5701.27 0.05 
10206 1 -3.22192 0.647519 2.7075 0 0 0 223.628 -338.532 -170107 672.922 -40340.8 -39.8079 5136.14 -10974 -8981.36 0.05 
13215 1 -0.227494 -0.0955384 2.75736 0 0 0 -0.415757 615.338 -169069 0 0.393381 -39.8079 56.5582 22216.6 -6775.57 0.05 
12795 1 -2.9795 -0.319794 2.7742 0 0 0 496.068 -76.1833 -168732 7.76129 43.495 -39.8079 -10403.9 3184.62 3882.04 0.05 
7183 1 -0.750538 -0.357225 2.86076 0 0 0 -0.775491 310.249 -166448 0 82.9287 -39.8079 -12783.2 -9045.73 -4366.71 0.05 
4371 1 -1.71272 0.396041 2.83748 0 0 0 0.978136 -152.086 -167037 -0.173172 -164.025 -39.8079 17513.9 -2599.57 17.1685 0.05 
11397 1 -0.43041 0.755056 2.85056 0 0 0 0.381765 49.4666 -166689 0 -1.54271e+06 -39.8079 9019.46 16450.5 -5556.43 0.05 
12202 1 -1.6963 -0.492153 2.9522 0 0 0 179.822 82.5041 -164076 -0.167746 1007.09 -39.8079 9591.61 11592.2 3632.57 0.05 
10576 1 -3.26601 0.233146 2.94701 0 0 0 288.586 -171.665 -164748 1646.88 -9.53774 -39.8079 -34639.3 13625.1 1203.32 0.05 
13017 1 -1.48728 -0.786682 2.99645 0 0 0 0.909248 599.62 -163153 -0.114105 6.14897e+06 -39.8079 -24189.3 -7438.98 3021.17 0.05 
8448 1 -0.48347 -0.794751 3.12772 0 0 0 0.508839 374.822 -159922 0 9.04232e+06 -39.8079 -5624.8 -12451.1 599.922 0.05 
11202 1 -0.848433 0.253932 3.16118 0 0 0 123.447 238.648 -159224 0 -13.865 -39.8079 -9912.06 27218.7 2176.75 0.05 
13635 1 -1.11896 0.672861 3.14216 0 0 0 1.12983 -249.149 -159669 0 -85218.4 -39.8079 23219.4 1106.72 3265.97 0.05 
11049 1 -2.64719 -0.218553 3.22639 0 0 0 133.741 -5.57847 -157302 -1.57722 7.28091 -39.8079 18.8217 -15907.8 3665.63 0.05 
12319 1 -0.0529361 0.162076 3.2276 0 0 0 -0.207636 85.6351 -158386 0 -2.32517 -39.8079 -4133.99 98548.8 -3973.59 0.05 
9405 1 -1.492 0.139256 3.23331 0 0 0 152.194 300.962 -157447 -0.115058 -1.36539 -39.8079 -12606.9 -4243.76 -2423.02 0.05 
12761 1 -0.541562 0.526414 3.28197 0 0 0 0.273628 -327.097 -156298 0 -2055.31 -39.8079 16792.2 -12762.6 -880.602 0.05 
13254 1 -1.96443 0.529592 3.2997 0 0 0 -0.150737 27.6358 -155765 -0.291486 -2200.97 -39.8079 -7367.64 -23625.4 3565.41 0.05 
11924 1 -1.4842 0.888762 3.29586 0 0 0 -0.0764036 132380 -156147 -0.113487 -4.13661e+09 -39.8079 -6970.43 -4104.63 9276.99 0.05 
11242 1 -1.16453 0.576257 3.33949 0 0 0 -0.0422323 -200.733 -155175 0 -6336.58 -39.8079 11388 -13157.8 4496.39 0.05 
12566 1 -1.89769 0.269123 3.41261 0 0 0 77.5525 -317.074 -153211 -0.252317 -18.1214 -39.8079 -16700 2013.15 5382.68 0.05 
12900 1 -3.48439 0.794914 3.4292 0 0 0 312.614 -553.759 -151839 686005 -9.11459e+06 -39.8079 -23920.6 40304.7 -3110.64 0.05 
8681 1 -0.510996 0.812457 3.38698 0 0 0 -0.925695 -841.989 -153783 0 -2.22902e+07 -39.8079 -50699.1 11980.1 1235.89 0.05 
4032 1 -1.64333 0.248073 3.59052 0 0 0 0.993795 310.862 -148998 -0.151615 -12.4903 -39.8079 9126.22 20299.1 3259.07 0.05 
12455 1 -2.35561 -0.306217 3.59525 0 0 0 1.67213 168.304 -148866 -0.750385 34.4447 -39.8079 7925.15 12355.5 -4376.61 0.05 
7677 1 -1.36622 0.535114 3.59536 0 0 0 -0.253297 -136.768 -149126 -0.0927066 -2481.45 -39.8079 -7104.88 7447.28 662.835 0.05 
11415 1 -0.874371 0.812197 3.6191 0 0 0 238.893 -999.801 -148344 0 -2.19845e+07 -39.8079 -96357.5 -10605.3 1405.99 0.05 
8255 1 -3.291 -0.427809 3.67702 0 0 0 175.984 68.4662 -146740 2823.7 291.688 -39.8079 -29492.7 -11449 4606.84 0.05 
10609 1 -1.77683 -0.323283 3.64755 0 0 0 1.51252 -165.219 -147349 -0.196567 46.1813 -39.8079 27672.1 -1753.56 3676.46 0.05 
13781 1 -2.52437 -0.000969553 3.78231 0 0 0 31.3856 1.24119 -144580 -1.17261 3.7186e-07 -39.8079 5489.15 -18032.1 -657.816 0.05 
6492 1 -1.69652 0.755603 3.83125 0 0 0 110.525 -202.786 -142339 -0.167816 -1.57756e+06 -39.8079 16696.9 -12891.1 2389.16 0.05 
9165 1 -2.43583 -0.768619 3.90235 0 0 0 69.1415 66.4721 -141097 -0.927703 2.72729e+06 -39.8079 -44682.4 13410.2 -3042.24 0.05 
12363 1 -3.1466 -0.411739 3.86869 0 0 0 355.596 239.597 -142172 164.92 217.48 -39.8079 8225.56 -3555.31 5490.18 0.05 
6487 1 -3.35302 -0.322441 3.89508 0 0 0 396.859 223.839 -141599 12225.4 45.5183 -39.8079 12836.7 -22377.9 -7704.65 0.05 
7639 1 -0.954679 -0.19084 3.87413 0 0 0 -1.0914 165.7 -141912 0 4.25761 -39.8079 15457.6 21674 1082.4 0.05 
13278 1 -2.04212 0.797494 3.94328 0 0 0 147.39 -1211.44 -140221 -0.346928 -1.03451e+07 -39.8079 -69159.6 7820.31 8625.9 0.05 
11852 1 -2.18255 -0.535031 3.99749 0 0 0 209.781 264.791 -138928 -0.483586 2476.97 -39.8079 11897.3 19456.2 984.161 0.05 
10766 1 -2.77276 0.0156567 3.99098 0 0 0 274.323 -645.343 -139270 -1.77874 -0.00157011 -39.8079 -41199.7 -4787.51 941.861 0.05 
3777 1 -2.73426 -0.818803 4.04568 0 0 0 477.102 46654.8 -137498 -1.79183 3.14514e+07 -39.8079 2511.96 -4716.12 -2155.11 0.05 
11713 1 -2.15101 -0.260547 4.057 0 0 0 187.819 -811.193 -137639 -0.447937 15.587 -39.8079 12852.1 -8865.71 6541.5 0.05 
9454 1 -2.46688 -0.119677 4.05851 0 0 0 23.8613 148.175 -137789 -1.00757 0.819075 -39.8079 8704.99 5585.32 2765.96 0.05 
12207 1 -0.638598 0.187801 4.00888 0 0 0 -0.261889 -17318 -139063 0 -4.00473 -39.8079 -20262.1 -18969.9 601.985 0.05 
3037 1 -0.655406 0.0306465 4.15373 0 0 0 51.9572 -3.79083 -135437 0 -0.0118651 -39.8079 -3964.81 -4136.05 3439.81 0.05 
9289 1 -0.142837 0.317189 4.18402 0 0 0 1.1644 -131.287 -134108 0 -41.5911 -39.8079 -3624.17 -6460.88 4435.75 0.05 
10622 1 -2.52968 -0.515486 4.2414 0 0 0 149.526 3.09714 -132670 -1.18894 1629.25 -39.8079 -19546.9 30099.5 -1973.68 0.05 
9291 1 -0.582903 -0.164653 4.27681 0 0 0 0.867404 -55.9492 -132285 0 2.46109 -39.8079 9808.39 -21308.2 -682.456 0.05 
1298 1 -2.31902 -0.55109 4.35127 0 0 0 79.3297 274.929 -130642 -0.682135 3537.31 -39.8079 5833.24 8835.42 -5717.94 0.05 
6601 1 -3.06477 -0.238828 4.35096 0 0 0 222.059 156.804 -130485 38.9711 10.5761 -39.8079 1511.83 7088.19 3380.35 0.05 
8417 1 -2.52953 0.0246797 4.36703 0 0 0 9.37303 66461.2 -129879 -1.18847 -0.00617416 -39.8079 7807.19 -6700.52 1209.71 0.05 
11208 1 -0.922928 0.314515 4.48908 0 0 0 -0.489781 -313.998 -127289 0 -39.7243 -39.8079 -18203.6 16205.6 -2992.52 0.05 
10028 1 -3.44221 0.692671 4.48327 0 0 0 387.078 -271.925 -126502 156957 -159306 -39.8079 44558.4 21410.1 2807.04 0.05 
11214 1 -1.90715 0.801531 4.53547 0 0 0 194.512 -990.07 -125393 -0.257457 -1.26526e+07 -39.8079 -70915.1 587.244 -4847.1 0.05 
2112 1 -1.37331 -0.397444 4.60149 0 0 0 111.049 -54.544 -124158 -0.0938134 168.186 -39.8079 1233.91 1872.77 1305.06 0.05 
206 1 -2.2902 -0.760042 4.65482 0 0 0 83.4541 71.1761 -122356 -0.633307 1.89505e+06 -39.8079 -18401.5 -18084.4 1061.65 0.05 
13478 1 -2.78609 0.407406 4.70261 0 0 0 449.637 -45.6363 -121456 -1.74211 -201.103 -39.8079 -10129.5 -26863.5 2476.92 0.05 
4730 1 -2.34621 0.569503 4.71437 0 0 0 334.723 -235.072 -121644 -0.732152 -5402.01 -39.8079 20948.1 -7961.38 -4366.16 0.05 
8660 1 -2.89291 -0.777106 4.75968 0 0 0 534.999 453.33 -119849 0.0499745 3.96341e+06 -39.8079 14477.5 -14760.4 -8301.81 0.05 
12559 1 -2.2787 -0.771845 4.77182 0 0 0 32464 49.6079 -119774 -0.614957 3.13848e+06 -39.8079 -43723.8 -25383.5 -13862.8 0.05 
9911 1 -2.30345 -0.192917 4.7377 0 0 0 90.3066 -152.24 -121287 -0.655234 4.43824 -39.8079 -9458.35 6156.14 792.257 0.05 
13047 1 -1.47138 -0.503598 4.82394 0 0 0 2.72496 121.492 -118930 -0.110967 1272 -39.8079 -5261.26 -2525.86 1985.84 0.05 
4350 1 -1.93881 -0.588774 4.85515 0 0 0 93.4383 630.493 -117650 -0.275621 8572.66 -39.8079 -12400.1 -42919.9 4136.68 0.05 
3659 1 -1.15939 -0.606557 4.87334 0 0 0 5.16334 430.76 -117801 0 13376.2 -39.8079 2733.13 11103 -565.496 0.05 
9947 1 -0.484487 -0.210737 4.86525 0 0 0 0.987894 -342.507 -117774 0 6.28059 -39.8079 -10103.5 12433.8 10082.9 0.05 
7680 1 -0.230754 0.660173 4.8543 0 0 0 -0.0890154 3.29516 -117826 0 -58200.2 -39.8079 -7670.81 -7350.76 -6526.56 0.05 
12040 1 -3.18793 0.0906599 4.98537 0 0 0 471.714 -356.738 -114849 351.253 -0.332788 -39.8079 15089.1 17082 -86.3417 0.05 
11268 1 -1.9323 -0.198608 5.01859 0 0 0 1.76208 -81.2142 -114222 -0.271764 4.96723 -39.8079 29864.8 -3618.73 -685.673 0.05 
7591 1 -0.677 0.71576 5.04829 0 0 0 -0.00815119 67.5191 -113236 0 -348146 -39.8079 14341 -7770.88 7549.9 0.05 
13500 1 -0.507361 -0.392865 5.14031 0 0 0 1.06112 -118915 -111014 0 155.004 -39.8079 38161.3 9002.19 3337.92 0.05 
12192 1 -0.206421 0.178929 5.10019 0 0 0 2.37786 -93.6073 -112466 0 -3.33816 -39.8079 19408.4 -524.192 3250.39 0.05 
8359 1 -2.18518 0.0532591 5.20588 0 0 0 77.7597 -401.521 -109586 -0.486706 -0.063585 -39.8079 -5819.2 -7486.86 -11905.4 0.05 
9169 1 -1.8852 0.283574 5.22461 0 0 0 34.9853 72468.5 -109754 -0.245718 -23.3059 -39.8079 18361.9 -32131.1 19347.1 0.05 
10939 1 -2.73797 0.641537 5.21662 0 0 0 188.799 39.8001 -108479 -1.79513 -34074.6 -39.8079 3906.56 21481.6 603.853 0.05 
13249 1 -1.23454 -0.74812 5.25801 0 0 0 199.43 545.844 -107671 0 1.16673e+06 -39.8079 -27288.1 23601.4 -625.568 0.05 
13159 1 -3.55028 0.483824 5.2678 0 0 0 921.067 -477.741 -107355 1.18823e+07 -852.061 -39.8079 -17199.1 -37408.3 -2407.07 0.05 
8437 1 -3.41324 0.713014 5.25525 0 0 0 585.213 38137.2 -108235 63742.8 -316204 -39.8079 19327.7 -34445.8 -4832.02 0.05 
12032 1 -2.87548 -0.334882 5.37868 0 0 0 290.307 -84.2953 -104733 -0.542676 56.3752 -39.8079 4790.94 -28224.8 3147.42 0.05 
13964 1 -0.20749 -0.243962 5.39035 0 0 0 -1.73267 -435.101 -104936 0 11.6028 -39.8079 -4294.31 -12211.4 -775.338 0.05 
6590 1 -3.55392 -0.130723 5.38397 0 0 0 751.135 131.805 -105312 1.42844e+07 1.10082 -39.8079 6267.37 -36918.6 8012.27 0.05 
9303 1 -0.349087 -0.119126 5.38595 0 0 0 0.589332 122.437 -105137 0 0.806629 -39.8079 -13928.1 -5148.38 933.195 0.05 
1859 1 -2.699 0.259286 5.39716 0 0 0 110.629 -566.061 -104579 -1.72901 -15.2438 -39.8079 -5784.6 4348.33 5790.38 0.05 
12315 1 -3.41806 0.442989 5.3781 0 0 0 198.637 122.553 -105651 73650.1 -386.891 -39.8079 29274.3 -39488.5 7802.64 0.05 
6890 1 -2.16663 0.314493 5.44702 0 0 0 130.388 247.473 -103525 -0.465181 -39.7088 -39.8079 2141.05 14005.6 -3014.62 0.05 
4674 1 -1.59886 0.566288 5.4323 0 0 0 169.282 83.8275 -103803 -0.139536 -5010.97 -39.8079 24967.3 -9431.76 9902.63 0.05 
271 1 -3.47174 -0.158834 5.47094 0 0 0 267.322 194.947 -103281 430671 2.16297 -39.8079 -6456.94 40297.8 -4579.49 0.05 
13236 1 -3.13665 -0.211881 5.47194 0 0 0 271.394 -26401 -102743 138.051 6.41888 -39.8079 1781.1 -1637.86 4576.29 0.05 
11483 1 -1.88836 -0.698404 5.53717 0 0 0 4.93022 4887.68 -101314 -0.247369 192360 -39.8079 65648.3 -5559.14 -2364.46 0.05 
7042 1 -1.68893 0.371206 5.58204 0 0 0 223.827 -12654.7 -100089 -0.165377 -105.8 -39.8079 -34206.3 -5516.62 3736.18 0.05 
13162 1 -0.413059 0.0444165 5.63065 0 0 0 109.41 261.21 -98328.8 0 -0.036533 -39.8079 336.558 -9142.93 2716.89 0.05 
3372 1 -1.59222 -0.0167619 5.66785 0 0 0 4.82462 104.867 -98057.9 -0.137838 0.00192739 -39.8079 -23909.3 -10681.9 -2635.59 0.05 
8516 1 -0.701532 0.265697 5.6878 0 0 0 1.42313 -60.5683 -97581.6 0 -17.0651 -39.8079 2073.26 9071.94 8287.91 0.05 
3963 1 -0.262162 0.569119 5.68175 0 0 0 2.44269 221.946 -97608.4 0 -5353.55 -39.8079 -5048.29 -19173.1 -6525.2 0.05 
10960 1 -1.21338 0.765911 5.68457 0 0 0 595.398 -3069.31 -97761.7 0 -2.4277e+06 -39.8079 -90095.7 -10669.7 9763.8 0.05 
10345 1 -3.0908 -0.684109 5.71986 0 0 0 128.2 5019.77 -96029.9 61.561 120984 -39.8079 52479.7 4063.3 -1435.06 0.05 
13612 1 -1.51796 -0.180466 5.76212 0 0 0 62.0346 -322.345 -95748.3 -0.120478 3.44642 -39.8079 -15597.4 371.408 3250.97 0.05 
4198 1 -1.48488 -0.0448041 5.74506 0 0 0 89.7897 67.2626 -96374.1 -0.113623 0.0375122 -39.8079 -21743.3 -3519.48 1061.91 0.05 
11890 1 -2.83949 0.138095 5.74517 0 0 0 451.004 -143.809 -96205.9 -1.30073 -1.32678 -39.8079 22358.7 -25560.3 3189.61 0.05 
13505 1 -0.162662 0.190622 5.75949 0 0 0 153.17 69735 -96226 0 -4.2391 -39.8079 23766.4 5473.26 -5383.39 0.05 
10867 1 -3.06742 0.790002 5.75966 0 0 0 400.747 -498.172 -95278.5 40.8401 -7.19348e+06 -39.8079 -14545.6 26999.2 991.261 0.05 
13274 1 -1.34197 -0.794977 5.8114 0 0 0 153.741 217.602 -94381.9 -0.0890386 9.14286e+06 -39.8079 2351.61 -12550.2 -462.172 0.05 
12661 1 -3.53348 0.281805 5.86126 0 0 0 624.043 -45.1973 -93168.8 5.29696e+06 -22.602 -39.8079 15991.1 -5875.18 -3027.09 0.05 
9422 1 -1.453 0.431329 5.83608 0 0 0 145.633 -279.523 -93780.3 -0.107472 -311.286 -39.8079 5125.03 2882.75 6268.6 0.05 
4108 1 -0.716684 -0.611829 5.91753 0 0 0 8.49039 343.148 -91544.4 0 15318.9 -39.8079 23231 11283.8 -603.078 0.05 
12344 1 -0.104799 -0.232016 5.86849 0 0 0 -0.974427 -381.27 -92491.4 0 9.3427 -39.8079 -1449.49 -3011.39 12858.7 0.05 
7105 1 -1.48386 -0.377577 5.95977 0 0 0 154.374 -258.265 -90828.2 -0.113421 118.303 -39.8079 15953.6 -388.134 9770.12 0.05 
11228 1 -0.851923 0.67214 5.92814 0 0 0 212.248 -292.31 -91138.1 0 -83357.8 -39.8079 26710.5 22515 882.167 0.05 
10394 1 -1.97651 -0.798706 5.99322 0 0 0 455.702 916.73 -89839.8 -0.299354 1.09849e+07 -39.8079 48274.2 4032.71 470.026 0.05 
10294 1 -1.68149 -0.715256 5.97358 0 0 0 8.9747 -85.0104 -90196.4 -0.16303 342026 -39.8079 15261.7 -5016.74 -2015.43 0.05 
6232 1 -3.38019 -0.585841 6.01496 0 0 0 598.052 593.154 -89029.1 24926.3 7980.38 -39.8079 -27584.8 35113.1 -8282.62 0.05 
11247 1 -2.36912 -0.0811295 6.01957 0 0 0 281.584 -280.537 -89138.6 -0.777476 0.234213 -39.8079 20176.5 16917.6 2779.55 0.05 
3780 1 -0.872847 -0.0788646 5.98753 0 0 0 214.749 -236.551 -90065.6 0 0.214282 -39.8079 10985.2 15940 -3369.77 0.05 
8380 1 -0.565201 -0.680645 6.07156 0 0 0 156.055 462.074 -88010.4 0 108466 -39.8079 -75.1218 -1963.71 6907.18 0.05 
11812 1 -2.01861 -0.409917 6.11895 0 0 0 8.26129 65.9614 -86739.4 -0.328888 210.427 -39.8079 -10600.1 -24162.6 9882.96 0.05 
13755 1 -0.903035 -0.275931 6.1639 0 0 0 3.04535 472.909 -85593.1 0 20.4083 -39.8079 -25575.7 30462.9 -6314.97 0.05 
4329 1 -2.28219 0.241831 6.17329 0 0 0 436.396 -111.317 -84885.3 -0.620465 -11.166 -39.8079 -2387.67 -15375.5 689.759 0.05 
1210 1 -0.287025 0.253296 6.13473 0 0 0 0.254153 226.035 -86541 0 -13.7091 -39.8079 28407.2 -2975.74 -16011.4 0.05 
11916 1 -1.86237 0.437542 6.16468 0 0 0 70.8084 -59.159 -85731.7 -0.234206 -349.38 -39.8079 21488.1 5883.66 -749.099 0.05 
11567 1 -2.34567 0.659475 6.14256 0 0 0 176.814 -583.374 -85965.3 -0.731121 -57015.5 -39.8079 1786.99 -21168.7 -7103.01 0.05 
13012 1 -1.05115 -0.636481 6.20653 0 0 0 394.42 185.045 -84787.3 0 29607.9 -39.8079 21567.3 -6382.23 -849.642 0.05 
9416 1 -3.55293 0.0583605 6.18246 0 0 0 881.149 -10.5578 -85264.2 1.35774e+07 -0.0841873 -39.8079 -16972.8 -56184.6 4454.39 0.05 
13282 1 -3.21618 0.43777 6.19414 0 0 0 370.898 -563.587 -84482.6 601.63 -350.871 -39.8079 20389 -43565.5 -11889.1 0.05 
11564 1 -3.51403 0.91324 6.26104 0 0 0 321.679 -84172.4 -82607.4 2.24086e+06 -4.966e+10 -39.8079 261.991 23243.1 7058.2 0.05 
13957 1 -0.598619 -0.802757 6.33076 0 0 0 -0.438965 664.874 -81583.4 0 1.34615e+07 -39.8079 59375.1 20431 -1552.29 0.05 
12325 1 -2.51091 -0.289424 6.32067 0 0 0 567.319 149.826 -81643.2 -1.132 25.7892 -39.8079 3195.34 13151 3670.74 0.05 
12952 1 -2.7616 -0.215088 6.31765 0 0 0 194.592 498.246 -81769.9 -1.79483 6.82121 -39.8079 -5596.16 13792.8 -4217.11 0.05 
8433 1 -1.98823 -0.116737 6.29261 0 0 0 90.5099 -85.5952 -82741.8 -0.307239 0.754322 -39.8079 -27629.9 -1613.83 63.4766 0.05 
3281 1 -1.80475 -0.498815 6.34334 0 0 0 79.8529 308.959 -80747.1 -0.207972 1153.08 -39.8079 26017.5 -1559.52 -5358.65 0.05 
9961 1 -3.53873 -0.45026 6.33513 0 0 0 488.325 185.325 -80410.8 6.77203e+06 443.805 -39.8079 31142.8 -24806.9 -9770.97 0.05 
7835 1 -1.02215 -0.108417 6.39244 0 0 0 265.872 325.825 -79933.1 0 0.591839 -39.8079 -18124.5 -28720.3 5095.93 0.05 
13010 1 -2.89034 0.485235 6.42389 0 0 0 451.052 282.257 -78615.9 -0.0491004 -876.396 -39.8079 11212.3 -23202.4 2727.87 0.05 
11203 1 -0.298276 0.769754 6.41579 0 0 0 59.4273 39.4691 -78279 0 -2.86478e+06 -39.8079 -16840.2 -19091.4 7106.99 0.05 
6997 1 -1.25694 -0.796502 6.47111 0 0 0 7.76568 2023.42 -77910.7 -0.0775298 9.85161e+06 -39.8079 104188 -3819 10772.9 0.05 
5927 1 -0.693439 -0.716956 6.44836 0 0 0 0.751385 4255.5 -78576.9 0 363146 -39.8079 45653.4 -463.853 2434.88 0.05 
12277 1 -2.53058 -0.701083 6.49429 0 0 0 325.726 565.342 -76782.4 -1.19171 210327 -39.8079 5654.59 -17783.4 -7973.42 0.05 
3539 1 -0.255166 -0.675944 6.52396 0 0 0 229.158 250.896 -76730.4 0 93695.1 -39.8079 -28886.6 8081.73 7369.33 0.05 
7469 1 -0.105039 -0.651657 6.52539 0 0 0 4.7581 46.7555 -76297.7 0 45412.2 -39.8079 -2407.67 -5808.57 -2764.24 0.05 
10018 1 -2.7443 -0.122722 6.49185 0 0 0 265.188 264.743 -77504.8 -1.79887 0.890462 -39.8079 -8288.21 -4563.39 -8281.17 0.05 
11555 1 -0.79215 -0.551177 6.58973 0 0 0 363.825 -220.846 -74082.9 0 3544.29 -39.8079 -11791.8 -17522.3 961.235 0.05 
11344 1 -0.267171 -0.565385 6.5733 0 0 0 5.43804 -4.49234 -75193.8 0 4906.78 -39.8079 23001.7 -936.71 4012.35 0.05 
6901 1 -0.053749 0.0372401 6.56578 0 0 0 0.461508 -3.09134 -76635.4 0 -0.0213941 -39.8079 -22917.7 104160 1454.02 0.05 
2425 1 -2.46204 0.236743 6.62734 0 0 0 66.0808 471.966 -74051.8 -0.99469 -10.1836 -39.8079 5905.47 -5917.71 7310.86 0.05 
13458 1 -3.34209 -0.109914 6.64791 0 0 0 181.799 -41.682 -73559 9301.32 0.61892 -39.8079 18407.7 -12866.5 -4957.3 0.05 
12466 1 -2.08296 0.0925475 6.65743 0 0 0 300.262 151558 -73491 -0.381212 -0.355365 -39.8079 5353.66 -9415.89 6519.21 0.05 
8541 1 -1.63813 0.196363 6.66442 0 0 0 6.86351 25451 -73294.3 -0.150137 -4.75237 -39.8079 13423.6 -24549.3 -4350.63 0.05 
8206 1 -1.54259 -0.60257 6.78822 0 0 0 162.591 278.142 -70272.8 -0.125917 12086.3 -39.8079 -8246.42 12291.5 -8980.09 0.05 
2973 1 -1.87752 -0.317172 6.75063 0 0 0 120.55 77.8663 -70439.4 -0.241769 41.579 -39.8079 -6675.36 -4118.29 2660.5 0.05 
6813 1 -1.00676 -0.331038 6.84707 0 0 0 6.82129 -37.6129 -68184.5 0 52.7672 -39.8079 -2058.13 18839 -1325.8 0.05 
8830 1 -2.19753 -0.0735512 6.80375 0 0 0 291.125 598.303 -69213.9 -0.50169 0.17228 -39.8079 2280.84 -4759.88 -557.186 0.05 
8867 1 -3.37 -0.00880045 6.80445 0 0 0 175.658 -142.955 -68445.3 18971.9 0.000278319 -39.8079 -12620.4 676.409 961.516 0.05 
10564 1 -1.22521 0.248016 6.84285 0 0 0 121.999 251.455 -68383.4 0 -12.4775 -39.8079 7339.68 5379.02 -3964.87 0.05 
3838 1 -2.30248 -0.658275 6.8498 0 0 0 342.245 -53.3796 -67827.3 -0.653604 55040.8 -39.8079 15741.5 -11453.5 4422.03 0.05 
8337 1 -3.09283 -0.551437 6.89657 0 0 0 399.868 1113.87 -66451.4 63.7909 3565.09 -39.8079 -1720.62 -405.405 2440.86 0.05 
11387 1 -1.74233 -0.343119 6.86849 0 0 0 147.018 12765.9 -67459.2 -0.183522 64.972 -39.8079 60006.6 -11354 -10403.1 0.05 
3934 1 -3.41132 -0.659553 6.92566 0 0 0 5463.79 5286.86 -64673 60211.7 57146.6 -39.8079 15707.4 -36673.4 -4753.8 0.05 
725 1 -2.28315 0.131316 6.94877 0 0 0 297.8 345.191 -65562.3 -4.1819e+06 -1.07107e+07 2.63611e+08 20118.3 26379.8 9855.95 0.05 
8625 1 -2.23128 0.609368 6.92244 0 0 0 106.049 118568 -66987.1 -0.545525 -14376.1 -39.8079 7015.79 4767.2 -25241.5 0.05 
14013 1 -3.30281 -0.808457 7.00187 0 0 0 5.92364 1600.87 1.96092 1.73082e+06 9.55519e+06 727034 -784.94 3.72011 3293.71 0.05 
196 1 -3.09803 -0.798692 7.00866 0 0 0 1.06718 1928.29 -170.045 -3.03948e+06 3.08337e+08 -8.48223e+06 -8084.82 459.082 653.599 0.05 
12327 1 -1.10086 -0.809883 7.00054 0 0 0 2.10863 746.312 1.83795 1.03464e+06 1.66524e+07 751463 -5403.69 103.568 3961.37 0.05 
6695 1 -0.781354 -0.811216 7.00083 0 0 0 -0.302837 1066.33 -2.18929 -115059 2.01155e+07 -231549 -1063.06 -5.70546 281.094 0.05 
13221 1 -0.460256 -0.81372 6.9956 0 0 0 1.88931 1045.66 -266.487 512931 1.50663e+07 1.47091e+06 -8816.46 -3373.82 -688.787 0.05 
9943 1 -2.92917 -0.760648 7.00477 0 0 0 133.544 539.753 -563.336 65857.7 2.2084e+06 -378207 -1352.27 12331.8 -2066.5 0.05 
13855 1 -1.76177 -0.752743 7.0019 0 0 0 37.5768 292.299 -74.3992 -479286 5.36337e+06 1.67305e+06 -3431.29 3661.83 -5458.29 0.05 
12243 1 -0.703098 -0.74668 6.99881 0 0 0 79.2819 321.344 -334.437 0 1.10206e+06 -39.8079 -5970.99 2279.07 -7839.35 0.05 
11028 1 -0.58526 -0.762816 6.99697 0 0 0 -1.26136 198.185 -392.729 -5.70265e+06 -2.20614e+08 1.43109e+06 -2834.65 -649.914 3602.15 0.05 
5466 1 -0.115589 -0.777882 7.00466 0 0 0 -1.06776 491.184 -133.28 0 4.104e+06 -39.8079 -10239 -3204.55 -3795.08 0.05 
13426 1 -3.2821 -0.731802 7.00829 0 0 0 280.451 226.72 -3.02526 4.19482e+07 3.30204e+07 -2.42374e+06 -1675.52 4556.03 -1476.89 0.05 
9896 1 -3.06239 -0.701213 7.00727 0 0 0 310.93 61.7302 -234.731 37.369 211247 -39.8079 5202.11 -940.002 -4373.98 0.05 
11386 1 -2.47776 -0.713876 7.00247 0 0 0 283.223 261.7 -428.205 -1.16771e+06 888110 -117199 380.639 1508.64 -829.422 0.05 
11448 1 -3.34779 -0.658679 7.0035 0 0 0 400.568 121.013 -341.292 3.68191e+07 5.30845e+07 -1.29567e+06 -6183.13 -7079.48 -304.333 0.05 
9043 1 -2.27312 -0.662266 7.00041 0 0 0 337.203 0.657764 -307.828 -0.606268 61918.3 -39.8079 -399.185 -2743.2 -132.546 0.05 
13214 1 -1.69817 -0.637894 7.00638 0 0 0 337.81 265.936 -157.813 -691854 575403 -697211 1740.23 2158.95 6016.51 0.05 
13698 1 -0.541062 -0.632469 6.99824 0 0 0 356.367 -22.9303 -236.819 -1.20748e+06 -1.24483e+08 -905521 4800.03 -151.484 718.563 0.05 
3890 1 -3.4499 -0.604525 7.0021 0 0 0 459.811 17.1439 -366.655 202176 12700.9 -39.8079 4438.27 12996.8 1527.95 0.05 
14036 1 -2.36796 -0.625544 6.9992 0 0 0 394.119 174.219 -246.798 -0.775122 21987.5 -39.8079 -2810.68 10591.6 -5057.98 0.05 
9387 1 -1.88091 -0.630195 6.99821 0 0 0 362.588 410.256 -203.909 -0.243506 24927.3 -39.8079 -10148.1 -3104.27 4983.85 0.05 
13329 1 -1.32408 -0.592271 7.00407 0 0 0 430.604 256.365 -0.00476081 -0.0864491 9342.59 -39.8079 -1941.81 4204.42 -4716.37 0.05 
5912 1 -0.351425 -0.594634 7.0011 0 0 0 423.986 404.218 -70.2555 0 9905.63 -39.8079 -8306.81 7485.19 2955.8 0.05 
11316 1 -2.80836 -0.55555 7.00162 0 0 0 287.696 210.028 -3.93197 -1.6263 3913.4 -39.8079 -3944.5 4585.05 -5793.04 0.05 
11479 1 -2.45498 -0.532633 6.99942 0 0 0 303.406 220.671 -310.014 1.70805e+06 286774 -175035 -3243.43 -6255.42 6466.5 0.05 
3581 1 -1.73858 -0.53425 7.00786 0 0 0 306.571 258.363 -385.235 -0.182172 2435.11 -39.8079 -8983.15 2409.56 2379.19 0.05 
12594 1 -0.810798 -0.546409 7.00494 0 0 0 298.517 130.256 -330.833 -9.90698e+06 -8.79594e+08 -6.60328e+06 1560.08 7000.61 3480.88 0.05 
10556 1 -0.705515 -0.536605 7.00738 0 0 0 306.798 292.166 -249.398 -4.71244e+06 -5.17086e+08 2.85321e+06 1842 -1165.13 -1198.82 0.05 
9307 1 -0.256501 -0.528739 7.00024 0 0 0 289.382 485.802 -288.794 0 2160.78 -39.8079 549.015 3441.22 1945.48 0.05 
12205 1 -3.11772 -0.50269 7.00243 0 0 0 227.314 83.4878 -313.253 -197465 -354475 -337274 899.347 5077.02 4655.03 0.05 
7966 1 -2.01892 -0.515844 7.00025 0 0 0 271.075 398.97 -67.7064 -0.329116 1641.57 -39.8079 -2696.06 2518.34 -512.502 0.05 
10984 1 -1.50015 -0.505153 6.99663 0 0 0 245.201 154.13 -393.094 82913.2 398990 -1.65147e+06 -3691.6 4231.83 578.265 0.05 
13525 1 -1.36948 -0.486888 7.00853 0 0 0 215.51 323.508 -55.263 -661055 -585004 -261456 -3520.12 1953.66 4192.72 0.05 
5517 1 -3.3654 -0.433828 6.99995 0 0 0 6883.73 -2.95075 -1.24816 -4.83814e+07 -809857 -93413 -8.63172 -6913.05 2779.65 0.05 
6295 1 -3.22143 -0.469032 7.00483 0 0 0 127.988 325.598 -202 666.46 636.625 -39.8079 -7466.71 412.582 5921.79 0.05 
13644 1 -2.15656 -0.468093 6.99854 0 0 0 110.926 77.3176 -176.09 -3.06792e+07 7.81993e+08 -2.26011e+07 7677.34 353.094 5895.21 0.05 
7434 1 -1.82318 -0.46877 7.00638 0 0 0 26.0426 10209.1 -247.198 -3.76202e+06 -7.40996e+07 -2.23559e+06 758.981 2628.57 -1814.85 0.05 
7418 1 -1.68382 -0.44698 6.99518 0 0 0 0.857051 282.349 -286.097 -0.163761 417.088 -39.8079 -676.399 -2792.98 1280.38 0.05 
3483 1 -0.637798 -0.4698 7.00935 0 0 0 133.982 133.36 -5.79848 596438 830134 -1.35403e+06 -4344.37 1544.78 2252.81 0.05 
6072 1 -3.06715 -0.414739 7.00445 0 0 0 3.72542 64.5245 -100.169 864180 11439.2 77699.6 -390.621 -4209.06 1272 0.05 
11339 1 -2.07375 -0.370751 7.00175 0 0 0 3.50024 169.866 -312.849 -5.09415e+06 -1.53066e+08 -5.49422e+06 -93.4384 701.052 4148.73 0.05 
12492 1 -1.42302 -0.400068 7.00282 0 0 0 0.290928 283.972 -444.798 -0.10206 176.263 -39.8079 -5414.35 134.491 4899.75 0.05 
2539 1 -1.16147 -0.407126 7.00888 0 0 0 4.9128 161.871 -3.72403 -2.03389e+06 6.63417e+07 -1.73497e+06 -1540.18 -71.7616 -5108.79 0.05 
6261 1 -0.775932 -0.369097 6.99394 0 0 0 0.618799 44.0652 -308.55 0 101.971 -39.8079 1389.95 3757.27 2231.41 0.05 
11157 1 -0.354932 -0.408301 7.00162 0 0 0 5.23815 327.989 -63.3373 2.16474e+07 -2.11025e+07 -3.88097e+08 -4031.78 -1699.28 3959.14 0.05 
12860 1 -0.239983 -0.403935 7.00327 0 0 0 3.75714 471.621 -1.05677 0 188.921 -39.8079 -3509.92 38.6517 -988.115 0.05 
10082 1 -0.0747143 -0.40747 7.00094 0 0 0 3.18446 54941.6 -104.64 -1.74023e+07 -9.31278e+08 8.68441e+06 -50876.2 -2249.26 -30530.6 0.05 
10862 1 -2.83081 -0.321132 7.01016 0 0 0 227.695 118.423 -257.117 2.78081e+06 9.2472e+07 -141728 -64.317 -5218.99 -7136.42 0.05 
3298 1 -2.40015 -0.348073 7.00364 0 0 0 66.6892 206.505 -208.388 4.37215e+06 -1.53929e+08 -2.59932e+06 -6152.12 4993.35 -7516.23 0.05 
13080 1 -1.62743 -0.324151 7.00378 0 0 0 196.491 280.319 -1.51299 1.07256e+07 4.67819e+08 8.86995e+06 -3701.6 1309.6 -7690.95 0.05 
11927 1 -1.26166 -0.32782 7.00104 0 0 0 189.206 84.7036 -3.34129 -2.24174e+06 8.83233e+07 -1.86148e+06 -699.482 1442.27 -4680.2 0.05 
11626 1 -3.32623 -0.292572 7.00662 0 0 0 302.752 -10.6426 -265.281 -3.73768e+06 -1.23295e+08 -285292 4537.69 -2905.09 -4415.25 0.05 
3086 1 -3.06144 -0.308755 7.01015 0 0 0 258.047 76.6888 -347.064 36.7448 35.9808 -39.8079 -6271.32 5494.68 -4723.38 0.05 
246 1 -1.97307 -0.304249 7.00762 0 0 0 260.377 131.662 -39.2678 -5.06168e+06 -1.16027e+08 -2.75127e+06 -2370.06 2975.64 -7283.41 0.05 
13413 1 -0.750164 -0.269665 7.00745 0 0 0 335.376 53.9225 -74.4896 -246012 1.11336e+06 13491.2 5055.02 1416.26 -108.664 0.05 
13443 1 -2.62022 -0.231425 7.00127 0 0 0 314.328 263.462 -303.432 3.09749e+06 -1.44504e+08 -1.66937e+06 -8240.34 -1761.49 2415.71 0.05 
4622 1 -1.8179 -0.214885 7.0101 0 0 0 246.191 5.65833 -4.21584 -0.213624 6.79505 -39.8079 703.339 918.293 5645.47 0.05 
11055 1 -1.58295 -0.222685 7.00784 0 0 0 283.961 96.8661 -126.823 -1.30043e+07 5.22718e+08 -2.25046e+07 -4392.09 5232.38 1861.69 0.05 
9031 1 -1.07226 -0.253142 7.00494 0 0 0 334.705 289.024 -1.54797 -76125.6 235211 -475204 -2045.66 1860.8 5459.63 0.05 
8291 1 -0.433868 -0.222887 7.00749 0 0 0 31.0373 -354.752 -241.681 4.14302e+08 1.89676e+07 1.66343e+07 1149.84 -5777.73 65.8963 0.05 
10863 1 -3.46375 -0.176307 6.99936 0 0 0 4386.72 -11.2702 -474.622 -4.98709e+07 -2.73101e+06 682210 -6476.57 -892.527 6024.25 0.05 
11894 1 -3.17217 -0.176148 7.0015 0 0 0 97.0519 43.2856 -6.32627 1.77616e+06 9.40453e+07 -2.08624e+06 -592.882 559.371 3048.7 0.05 
12122 1 -0.561598 -0.189348 6.99318 0 0 0 164.395 -278.292 -438.034 3.07658e+08 -1.05877e+07 -6.0815e+06 1526.55 4005.71 1147.65 0.05 
13658 1 -0.159208 -0.167879 6.99505 0 0 0 6.16552 35.9457 -338.452 8.04767e+06 1.97502e+08 1.74407e+06 2663.93 -2311.72 -5122.69 0.05 
12127 1 -2.82774 -0.110502 7.00481 0 0 0 0.65822 -16.5174 -176.056 -1.45125 0.629813 -39.8079 -349.767 7175.76 -685.997 0.05 
7242 1 -1.01373 -0.155499 7.00213 0 0 0 2.10499 301.785 -440.675 0 2.00582 -39.8079 -4537.36 4110.27 -3968.13 0.05 
6839 1 -2.93495 -0.0569302 7.00058 0 0 0 91.9205 286.016 -1.03187 2.47714 0.0780064 -39.8079 -1689.84 3566.96 -6522.54 0.05 
8449 1 -2.5231 -0.0607105 7.00808 0 0 0 162.811 -4.52052 -328.312 -1.16872 0.0950642 -39.8079 -1837.05 8846.9 -3745.01 0.05 
9952 1 -1.27399 -0.0748962 7.00528 0 0 0 84.0763 1.56742 -1.3954 -0.0796817 0.182305 -39.8079 475.418 3136.13 -2102.83 0.05 
13065 1 -0.446058 -0.0746425 7.00081 0 0 0 60.1186 -390.178 -1.95423 0 0.180383 -39.8079 5055.88 2363.08 -659.839 0.05 
11753 1 -2.68153 -0.0062659 7.00279 0 0 0 164.083 -92.2907 -136.245 -2.97885e+07 -1.07482e+09 1.51371e+07 6814.35 1785.01 1298.32 0.05 
13038 1 -2.38145 -0.0446217 7.00701 0 0 0 162.264 -159.241 -291.757 -1.13809e+06 65863.9 238623 8614.34 7020 2025.45 0.05 
9721 1 -2.21126 -0.0457213 6.99986 0 0 0 124.673 -38.9364 -297.071 374554 -9.36088e+07 180805 6206.19 6668.52 -195.526 0.05 
11177 1 -1.65672 -0.0138031 6.99881 0 0 0 138.15 283.496 -269.311 -1.81475e+06 -905240 -508957 -7248.58 12401 -1328.74 0.05 
10773 1 -0.271816 -0.0388023 6.99928 0 0 0 125.834 285.341 -136.866 0 0.0242327 -39.8079 1343.81 7969.96 -5896.34 0.05 
9438 1 -3.45388 0.0212139 7.00216 0 0 0 4572.2 -62.1425 -170.023 -5.21867e+07 708598 -2.18906e+06 -1074.47 -7444.94 -2475.6 0.05 
1157 1 -1.05157 0.0241683 7.00781 0 0 0 115.395 327.817 -0.866411 0 -0.00579668 -39.8079 -1803.03 4161.78 4188.08 0.05 
2032 1 -0.422466 0.0462223 6.99649 0 0 0 1.15672 -302.125 -333.327 0 -0.0412466 -39.8079 5672.86 1259.79 -199.496 0.05 
5587 1 -2.27399 0.0573491 7.00713 0 0 0 51.9689 -180.556 -257.036 4.1819e+06 1.07107e+07 -2.63611e+08 201.268 5207.27 -2617.25 0.05 
4228 1 -2.03669 0.0875317 7.00414 0 0 0 119.611 -87.8968 -1.67874 -0.342652 -0.297676 -39.8079 1024.1 4523.61 4066.53 0.05 
5683 1 -1.90217 0.0558976 7.00452 0 0 0 28.6641 -75.9088 -0.799324 -5.17863e+06 3.11915e+08 -3.41184e+06 693.253 1044.14 -3768.01 0.05 
9104 1 -0.712962 0.064704 7.00772 0 0 0 90.2502 83.6632 -192.594 -1.74141e+06 5.37198e+07 -744670 4301.16 8529.25 -4063.11 0.05 
11421 1 -3.45708 0.154957 7.00169 0 0 0 4525.35 66.315 -183.247 -5.78751e+07 204046 -569969 -1619.45 -3836.99 1659.04 0.05 
1592 1 -1.43668 0.120733 7.00449 0 0 0 177.607 -130.717 -226.31 2.64067e+06 -1.13561e+08 -2.27269e+06 1167.27 51.5633 -553.984 0.05 
834 1 -1.17726 0.114038 6.97816 0 0 0 164.204 461.468 -65395 -1.42789e+06 -2.1637e+07 3.86328e+08 -43050.9 29253.4 -11061.5 0.05 
8636 1 -0.447671 0.152734 7.00615 0 0 0 120.445 -413.901 -0.684012 0 -1.88259 -39.8079 4452.07 4363.29 3557.15 0.05 
3720 1 -0.320313 0.11881 7.00091 0 0 0 143.364 313.586 -1.4372 0 -0.799557 -39.8079 -3241.05 5521.36 1523.92 0.05 