ITEM: TIMESTEP
400000
ITEM: NUMBER OF ATOMS
14052
ITEM: BOX BOUNDS ff pp ff
-3.75 3.75
-1 1
0 10
ITEM: ATOMS id type x y z ix iy iz vx vy vz fx fy fz omegax omegay omegaz radius 
13821 1 -1.59504 -0.509543 2.99808 0 0 0 0.275183 105.581 -171857 -0.138557 1438.68 -39.8079 4511.3 3783.37 -2558.63 0.05 
9412 1 -2.15412 -0.351488 2.98974 0 0 0 1.89464 14.6515 -171840 -0.451306 75.0803 -39.8079 -9278.38 13846.1 5701.27 0.05 
10206 1 -3.22237 0.648196 3.04771 0 0 0 223.627 -338.512 -170107 678.846 -41126.1 -39.8079 5136.14 -10974 -8981.36 0.05 
12795 1 -2.9805 -0.319642 3.11167 0 0 0 496.068 -76.1833 -168732 7.92835 43.3813 -39.8079 -10403.9 3184.62 3882.04 0.05 
13215 1 -0.227493 -0.096769 3.09549 0 0 0 -0.415757 615.338 -169069 0 0.409851 -39.8079 56.5582 22216.6 -6775.57 0.05 
4371 1 -1.71272 0.396345 3.17155 0 0 0 0.978136 -152.086 -167037 -0.173173 -164.918 -39.8079 17513.9 -2599.57 17.1685 0.05 
7183 1 -0.750536 -0.357845 3.19365 0 0 0 -0.775491 310.248 -166448 0 83.8266 -39.8079 -12783.2 -9045.73 -4366.71 0.05 
11397 1 -0.430411 0.754957 3.18394 0 0 0 0.381765 50.2254 -166689 0 -1.53644e+06 -39.8079 9019.46 16450.5 -5556.43 0.05 
12202 1 -1.69666 -0.492318 3.28036 0 0 0 179.822 82.5036 -164076 -0.167863 1010.45 -39.8079 9591.61 11592.2 3632.57 0.05 
10576 1 -3.26659 0.233489 3.27651 0 0 0 288.585 -171.665 -164748 1667.04 -9.59774 -39.8079 -34639.3 13625.1 1203.32 0.05 
13017 1 -1.48729 -0.787878 3.32276 0 0 0 0.909248 596.503 -163153 -0.114105 6.5047e+06 -39.8079 -24189.3 -7438.98 3021.17 0.05 
8448 1 -0.483471 -0.795496 3.44756 0 0 0 0.508839 370.283 -159922 0 9.37728e+06 -39.8079 -5624.8 -12451.1 599.922 0.05 
11202 1 -0.84868 0.253455 3.47963 0 0 0 123.447 238.648 -159224 0 -13.748 -39.8079 -9912.06 27218.7 2176.75 0.05 
13635 1 -1.11896 0.67336 3.4615 0 0 0 1.12983 -249.107 -159669 0 -86529.7 -39.8079 23219.4 1106.72 3265.97 0.05 
11049 1 -2.64745 -0.218542 3.54099 0 0 0 133.741 -5.57847 -157302 -1.5781 7.27939 -39.8079 18.8217 -15907.8 3665.63 0.05 
9405 1 -1.49231 0.138654 3.5482 0 0 0 152.194 300.962 -157447 -0.11512 -1.34525 -39.8079 -12606.9 -4243.76 -2423.02 0.05 
12319 1 -0.0529356 0.161905 3.54438 0 0 0 -0.207636 85.6351 -158386 0 -2.31636 -39.8079 -4133.99 98548.8 -3973.59 0.05 
13254 1 -1.96443 0.529537 3.61123 0 0 0 -0.150737 27.6369 -155765 -0.291485 -2198.35 -39.8079 -7367.64 -23625.4 3565.41 0.05 
12761 1 -0.541563 0.527068 3.59457 0 0 0 0.273628 -327.096 -156298 0 -2084.41 -39.8079 16792.2 -12762.6 -880.602 0.05 
11924 1 -1.4842 0.623821 3.60816 0 0 0 -0.0764035 132476 -156147 -0.113487 -20996.9 -39.8079 -6970.43 -4104.63 9276.99 0.05 
11242 1 -1.16453 0.576658 3.64984 0 0 0 -0.0422323 -200.73 -155175 0 -6397.46 -39.8079 11388 -13157.8 4496.39 0.05 
8681 1 -0.510994 0.814129 3.69454 0 0 0 -0.925695 -830.496 -153783 0 -2.43795e+07 -39.8079 -50699.1 11980.1 1235.89 0.05 
12566 1 -1.89785 0.269757 3.71903 0 0 0 77.5525 -317.074 -153211 -0.252401 -18.3236 -39.8079 -16700 2013.15 5382.68 0.05 
12900 1 -3.48501 0.796017 3.73288 0 0 0 312.272 -549.143 -151839 702364 -9.61964e+06 -39.8079 -23920.6 40304.7 -3110.64 0.05 
12455 1 -2.35561 -0.306554 3.89299 0 0 0 1.67213 168.304 -148866 -0.750392 34.6446 -39.8079 7925.15 12355.5 -4376.61 0.05 
4032 1 -1.64333 0.247451 3.88852 0 0 0 0.993795 310.862 -148998 -0.151615 -12.3521 -39.8079 9126.22 20299.1 3259.07 0.05 
7677 1 -1.36622 0.535387 3.89361 0 0 0 -0.253297 -136.767 -149126 -0.0927066 -2496.33 -39.8079 -7104.88 7447.28 662.835 0.05 
10609 1 -1.77683 -0.322952 3.94225 0 0 0 1.51252 -165.219 -147349 -0.196568 45.9199 -39.8079 27672.1 -1753.56 3676.46 0.05 
11415 1 -0.874849 0.814186 3.91579 0 0 0 238.893 -988.368 -148344 0 -2.44538e+07 -39.8079 -96357.5 -10605.3 1405.99 0.05 
8255 1 -3.29136 -0.427946 3.9705 0 0 0 175.982 68.466 -146740 2845.75 292.425 -39.8079 -29492.7 -11449 4606.84 0.05 
13781 1 -2.52444 -0.000972035 4.07147 0 0 0 31.3856 1.24119 -144580 -1.1728 3.74723e-07 -39.8079 5489.15 -18032.1 -657.816 0.05 
12363 1 -3.14731 -0.412218 4.15304 0 0 0 355.596 239.597 -142172 167.038 219.376 -39.8079 8225.56 -3555.31 5490.18 0.05 
7639 1 -0.954676 -0.191171 4.15795 0 0 0 -1.0914 165.7 -141912 0 4.286 -39.8079 15457.6 21674 1082.4 0.05 
6492 1 -1.69674 0.756008 4.11592 0 0 0 110.525 -202.002 -142339 -0.167887 -1.60394e+06 -39.8079 16696.9 -12891.1 2389.16 0.05 
9165 1 -2.43597 -0.76875 4.18454 0 0 0 69.1415 65.1241 -141097 -0.928044 2.74286e+06 -39.8079 -44682.4 13410.2 -3042.24 0.05 
6487 1 -3.35382 -0.322889 4.17828 0 0 0 396.853 223.839 -141599 12474 45.8697 -39.8079 12836.7 -22377.9 -7704.65 0.05 
13278 1 -2.04242 0.799912 4.22373 0 0 0 147.39 -1206.02 -140221 -0.347161 -1.16653e+07 -39.8079 -69159.6 7820.31 8625.9 0.05 
11852 1 -2.18297 -0.535561 4.27534 0 0 0 209.781 264.79 -138928 -0.484083 2505.79 -39.8079 11897.3 19456.2 984.161 0.05 
10766 1 -2.77331 0.0169474 4.26951 0 0 0 274.323 -645.343 -139270 -1.77763 -0.00199222 -39.8079 -41199.7 -4787.51 941.861 0.05 
12207 1 -0.638598 0.222436 4.287 0 0 0 -0.261889 -17318 -139063 0 -7.82881 -39.8079 -20262.1 -18969.9 601.985 0.05 
3777 1 -2.73522 -0.911598 4.32068 0 0 0 477.102 44471.1 -137498 -1.79276 4.11687e+10 -39.8079 2511.96 -4716.12 -2155.11 0.05 
11713 1 -2.15138 -0.258925 4.33228 0 0 0 187.819 -811.193 -137639 -0.448343 15.1469 -39.8079 12852.1 -8865.71 6541.5 0.05 
9454 1 -2.46693 -0.119974 4.33409 0 0 0 23.8613 148.175 -137789 -1.0077 0.825826 -39.8079 8704.99 5585.32 2765.96 0.05 
3037 1 -0.65551 0.0306541 4.4246 0 0 0 51.9572 -3.79083 -135437 0 -0.011874 -39.8079 -3964.81 -4136.05 3439.81 0.05 
9289 1 -0.142839 0.317451 4.45224 0 0 0 1.1644 -131.287 -134108 0 -41.7792 -39.8079 -3624.17 -6460.88 4435.75 0.05 
10622 1 -2.52998 -0.515492 4.50674 0 0 0 149.526 3.09634 -132670 -1.18987 1629.46 -39.8079 -19546.9 30099.5 -1973.68 0.05 
9291 1 -0.582905 -0.164541 4.54138 0 0 0 0.867404 -55.9492 -132285 0 2.45506 -39.8079 9808.39 -21308.2 -682.456 0.05 
1298 1 -2.31918 -0.55164 4.61255 0 0 0 79.3297 274.927 -130642 -0.682416 3581.47 -39.8079 5833.24 8835.42 -5717.94 0.05 
6601 1 -3.06521 -0.239142 4.61193 0 0 0 222.059 156.804 -130485 39.2777 10.6363 -39.8079 1511.83 7088.19 3380.35 0.05 
8417 1 -2.52955 -0.108243 4.62678 0 0 0 9.37303 66461.2 -129879 -1.18853 0.588737 -39.8079 7807.19 -6700.52 1209.71 0.05 
11208 1 -0.922927 0.315143 4.74366 0 0 0 -0.489781 -313.998 -127289 0 -40.1552 -39.8079 -18203.6 16205.6 -2992.52 0.05 
10028 1 -3.44299 0.693215 4.73628 0 0 0 386.999 -271.846 -126502 160965 -162156 -39.8079 44558.4 21410.1 2807.04 0.05 
11214 1 -1.90754 0.803504 4.78625 0 0 0 194.512 -983.512 -125393 -0.257671 -1.39827e+07 -39.8079 -70915.1 587.244 -4847.1 0.05 
2112 1 -1.37353 -0.397335 4.84981 0 0 0 111.049 -54.5441 -124158 -0.0938484 167.858 -39.8079 1233.91 1872.77 1305.06 0.05 
206 1 -2.29037 -0.760183 4.89954 0 0 0 83.4541 70.2393 -122356 -0.633578 1.90625e+06 -39.8079 -18401.5 -18084.4 1061.65 0.05 
9911 1 -2.30363 -0.192612 4.98027 0 0 0 90.3066 -152.24 -121287 -0.655539 4.41136 -39.8079 -9458.35 6156.14 792.257 0.05 
13478 1 -2.78698 0.407498 4.94552 0 0 0 449.637 -45.6362 -121456 -1.73886 -201.434 -39.8079 -10129.5 -26863.5 2476.92 0.05 
4730 1 -2.34688 0.569973 4.95765 0 0 0 334.723 -235.069 -121644 -0.733435 -5461.93 -39.8079 20948.1 -7961.38 -4366.16 0.05 
8660 1 -2.89398 -0.778011 4.99938 0 0 0 534.999 451.336 -119849 0.0926347 4.12796e+06 -39.8079 14477.5 -14760.4 -8301.81 0.05 
12881 1 -0.0783886 0.809855 9.80568 0 0 0 -16.6642 -933.676 -916.312 -3.84429e+06 -2.27567e+07 -1.07283e+07 -6690.23 -7724.93 1398.28 0.05 
12559 1 -2.34363 -0.771942 5.01137 0 0 0 32464 48.0577 -119774 -0.727224 3.15195e+06 -39.8079 -43723.8 -25383.5 -13862.8 0.05 
4350 1 -1.93899 -0.590035 5.09045 0 0 0 93.4383 630.488 -117650 -0.275733 8841.98 -39.8079 -12400.1 -42919.9 4136.68 0.05 
13047 1 -1.47139 -0.503841 5.0618 0 0 0 2.72496 121.491 -118930 -0.110968 1278.38 -39.8079 -5261.26 -2525.86 1985.84 0.05 
7680 1 -0.230754 0.660166 5.08996 0 0 0 -0.0890154 3.32384 -117826 0 -58188.8 -39.8079 -7670.81 -7350.76 -6526.56 0.05 
3659 1 -1.1594 -0.607419 5.10894 0 0 0 5.16334 430.754 -117801 0 13674.3 -39.8079 2733.13 11103 -565.496 0.05 
9947 1 -0.484489 -0.210052 5.1008 0 0 0 0.987894 -342.507 -117774 0 6.19902 -39.8079 -10103.5 12433.8 10082.9 0.05 
12040 1 -3.18887 0.0913734 5.21507 0 0 0 471.714 -356.738 -114849 357.51 -0.341196 -39.8079 15089.1 17082 -86.3417 0.05 
11268 1 -1.93231 -0.198446 5.24703 0 0 0 1.76208 -81.2142 -114222 -0.271766 4.95141 -39.8079 29864.8 -3618.73 -685.673 0.05 
7591 1 -0.677 0.715625 5.27476 0 0 0 -0.00815119 67.6903 -113236 0 -346493 -39.8079 14341 -7770.88 7549.9 0.05 
12192 1 -0.206425 0.179116 5.32513 0 0 0 2.37786 -93.6073 -112466 0 -3.35119 -39.8079 19408.4 -524.192 3250.39 0.05 
13500 1 -0.507364 -0.155034 5.36234 0 0 0 1.06112 -118915 -111014 0 1.98463 -39.8079 38161.3 9002.19 3337.92 0.05 
8359 1 -2.18533 0.0540622 5.42505 0 0 0 77.7597 -401.521 -109586 -0.486892 -0.0665678 -39.8079 -5819.2 -7486.86 -11905.4 0.05 
9169 1 -1.88527 0.138637 5.44411 0 0 0 34.9853 72468.5 -109754 -0.245755 -1.34468 -39.8079 18361.9 -32131.1 19347.1 0.05 
10939 1 -2.73835 0.641457 5.43357 0 0 0 188.799 39.8169 -108479 -1.79542 -33998.7 -39.8079 3906.56 21481.6 603.853 0.05 
13249 1 -1.23494 -0.749211 5.47336 0 0 0 199.43 545.256 -107671 0 1.21851e+06 -39.8079 -27288.1 23601.4 -625.568 0.05 
13159 1 -3.55212 0.48478 5.48251 0 0 0 914.932 -477.741 -107355 1.30321e+07 -868.458 -39.8079 -17199.1 -37408.3 -2407.07 0.05 
8437 1 -3.41441 0.63674 5.47172 0 0 0 585.181 38137.2 -108235 66006.1 -29819.8 -39.8079 19327.7 -34445.8 -4832.02 0.05 
12032 1 -2.87606 -0.334714 5.58814 0 0 0 290.307 -84.2953 -104733 -0.525759 56.2119 -39.8079 4790.94 -28224.8 3147.42 0.05 
13964 1 -0.207486 -0.243092 5.60022 0 0 0 -1.73267 -435.101 -104936 0 11.4225 -39.8079 -4294.31 -12211.4 -775.338 0.05 
6590 1 -3.55542 -0.130987 5.59459 0 0 0 743.818 131.805 -105312 1.54208e+07 1.10835 -39.8079 6267.37 -36918.6 8012.27 0.05 
9303 1 -0.349088 -0.119371 5.59623 0 0 0 0.589332 122.437 -105137 0 0.812141 -39.8079 -13928.1 -5148.38 933.195 0.05 
1859 1 -2.69922 0.260418 5.60632 0 0 0 110.629 -566.061 -104579 -1.72955 -15.5515 -39.8079 -5784.6 4348.33 5790.38 0.05 
12315 1 -3.41846 0.442744 5.5894 0 0 0 198.6 122.553 -105651 74539.1 -385.114 -39.8079 29274.3 -39488.5 7802.64 0.05 
6890 1 -2.16689 0.313998 5.65407 0 0 0 130.388 247.473 -103525 -0.465476 -39.3726 -39.8079 2141.05 14005.6 -3014.62 0.05 
4674 1 -1.59919 0.56612 5.6399 0 0 0 169.282 83.8299 -103803 -0.139623 -4991.44 -39.8079 24967.3 -9431.76 9902.63 0.05 
271 1 -3.47227 -0.159224 5.6775 0 0 0 267.108 194.947 -103281 439036 2.18197 -39.8079 -6456.94 40297.8 -4579.49 0.05 
13236 1 -3.13719 -0.159079 5.67742 0 0 0 271.394 -26401 -102743 139.392 2.17488 -39.8079 1781.1 -1637.86 4576.29 0.05 
11483 1 -1.88837 -0.70818 5.7398 0 0 0 4.93022 4887.57 -101314 -0.247374 267520 -39.8079 65648.3 -5559.14 -2364.46 0.05 
7042 1 -1.68937 0.396515 5.78222 0 0 0 223.827 -12654.7 -100089 -0.16552 -165.42 -39.8079 -34206.3 -5516.62 3736.18 0.05 
3372 1 -1.59223 -0.0169717 5.86397 0 0 0 4.82462 104.867 -98057.9 -0.137841 0.00200081 -39.8079 -23909.3 -10681.9 -2635.59 0.05 
13162 1 -0.413278 0.043894 5.82731 0 0 0 109.41 261.21 -98328.8 0 -0.0352412 -39.8079 336.558 -9142.93 2716.89 0.05 
10345 1 -3.09106 -0.694148 5.91192 0 0 0 128.2 5019.7 -96029.9 61.8381 167179 -39.8079 52479.7 4063.3 -1435.06 0.05 
8516 1 -0.701535 0.265818 5.88297 0 0 0 1.42313 -60.5683 -97581.6 0 -17.1015 -39.8079 2073.26 9071.94 8287.91 0.05 
3963 1 -0.262167 0.568675 5.87696 0 0 0 2.44269 221.949 -97608.4 0 -5298.18 -39.8079 -5048.29 -19173.1 -6525.2 0.05 
10960 1 -1.21457 0.772048 5.88009 0 0 0 595.398 -3067.94 -97761.7 0 -3.16668e+06 -39.8079 -90095.7 -10669.7 9763.8 0.05 
13612 1 -1.51809 -0.179822 5.95362 0 0 0 62.0346 -322.345 -95748.3 -0.120504 3.40066 -39.8079 -15597.4 371.408 3250.97 0.05 
4198 1 -1.48506 -0.0449386 5.93781 0 0 0 89.7897 67.2626 -96374.1 -0.113659 0.0378561 -39.8079 -21743.3 -3519.48 1061.91 0.05 
13505 1 -0.162968 0.0511525 5.95195 0 0 0 153.17 69735 -96226 0 -0.0561984 -39.8079 23766.4 5473.26 -5383.39 0.05 
11890 1 -2.84039 0.138383 5.93759 0 0 0 451.004 -143.809 -96205.9 -1.28755 -1.33627 -39.8079 22358.7 -25560.3 3189.61 0.05 
10867 1 -3.06823 0.790995 5.95021 0 0 0 400.747 -494.541 -95278.5 41.421 -7.5426e+06 -39.8079 -14545.6 26999.2 991.261 0.05 
13274 1 -1.34227 -0.795408 6.00016 0 0 0 153.741 213.048 -94381.9 -0.089084 9.33718e+06 -39.8079 2351.61 -12550.2 -462.172 0.05 
12344 1 -0.104797 -0.231254 6.05347 0 0 0 -0.974427 -381.27 -92491.4 0 9.21314 -39.8079 -1449.49 -3011.39 12858.7 0.05 
12661 1 -3.53472 0.281895 6.0476 0 0 0 621.355 -45.1973 -93168.8 5.61155e+06 -22.6375 -39.8079 15991.1 -5875.18 -3027.09 0.05 
9422 1 -1.45329 0.431888 6.02364 0 0 0 145.633 -279.523 -93780.3 -0.107526 -314.526 -39.8079 5125.03 2882.75 6268.6 0.05 
4108 1 -0.716701 -0.612515 6.10062 0 0 0 8.49039 343.141 -91544.4 0 15593.8 -39.8079 23231 11283.8 -603.078 0.05 
11228 1 -0.852347 0.672724 6.11042 0 0 0 212.248 -292.268 -91138.1 0 -84861.6 -39.8079 26710.5 22515 882.167 0.05 
10394 1 -1.97742 -0.800534 6.1729 0 0 0 455.702 911.062 -89839.8 -0.299958 1.20341e+07 -39.8079 48274.2 4032.71 470.026 0.05 
10294 1 -1.68151 -0.715086 6.15397 0 0 0 8.9747 -85.1785 -90196.4 -0.163036 339987 -39.8079 15261.7 -5016.74 -2015.43 0.05 
7105 1 -1.48417 -0.377061 6.14143 0 0 0 154.374 -258.265 -90828.2 -0.113482 117.234 -39.8079 15953.6 -388.134 9770.12 0.05 
3780 1 -0.873277 -0.0783915 6.16766 0 0 0 214.749 -236.551 -90065.6 0 0.210276 -39.8079 10985.2 15940 -3369.77 0.05 
6232 1 -3.38139 -0.587028 6.19301 0 0 0 598.04 593.151 -89029.1 25750.3 8214.39 -39.8079 -27584.8 35113.1 -8282.62 0.05 
11247 1 -2.36968 -0.0805685 6.19785 0 0 0 281.584 -280.537 -89138.6 -0.778629 0.229158 -39.8079 20176.5 16917.6 2779.55 0.05 
8380 1 -0.565513 -0.681569 6.24758 0 0 0 156.055 462.02 -88010.4 0 111661 -39.8079 -75.1218 -1963.71 6907.18 0.05 
11812 1 -2.01863 -0.410049 6.29243 0 0 0 8.26129 65.9613 -86739.4 -0.3289 210.929 -39.8079 -10600.1 -24162.6 9882.96 0.05 
1210 1 -0.287025 0.252844 6.30781 0 0 0 0.254153 226.035 -86541 0 -13.5994 -39.8079 28407.2 -2975.74 -16011.4 0.05 
11567 1 -2.34603 0.660641 6.31449 0 0 0 176.814 -583.345 -85965.3 -0.731797 -59011 -39.8079 1786.99 -21168.7 -7103.01 0.05 
13012 1 -1.05193 -0.636851 6.3761 0 0 0 394.42 185.03 -84787.3 0 29912.1 -39.8079 21567.3 -6382.23 -849.642 0.05 
13755 1 -0.903041 -0.276877 6.33508 0 0 0 3.04535 472.909 -85593.1 0 20.7471 -39.8079 -25575.7 30462.9 -6314.97 0.05 
9416 1 -3.55468 0.0583816 6.35299 0 0 0 874.149 -10.5578 -85264.2 1.48483e+07 -0.084281 -39.8079 -16972.8 -56184.6 4454.39 0.05 
4329 1 -2.28307 0.242054 6.34306 0 0 0 436.396 -111.317 -84885.3 -0.62185 -11.2109 -39.8079 -2387.67 -15375.5 689.759 0.05 
13282 1 -3.21692 0.438897 6.3631 0 0 0 370.898 -563.586 -84482.6 610.366 -358.335 -39.8079 20389 -43565.5 -11889.1 0.05 
11916 1 -1.86251 0.43766 6.33614 0 0 0 70.8084 -59.1588 -85731.7 -0.234276 -350.152 -39.8079 21488.1 5883.66 -749.099 0.05 
11564 1 -3.51467 0.816342 6.42626 0 0 0 320.56 85560.8 -82607.4 2.30279e+06 -2.74812e+07 -39.8079 261.991 23243.1 7058.2 0.05 
12325 1 -2.51204 -0.289723 6.48396 0 0 0 567.319 149.826 -81643.2 -1.13537 25.9231 -39.8079 3195.34 13151 3670.74 0.05 
12952 1 -2.76199 -0.216085 6.48119 0 0 0 194.592 498.246 -81769.9 -1.79446 6.95069 -39.8079 -5596.16 13792.8 -4217.11 0.05 
8433 1 -1.98841 -0.116566 6.45809 0 0 0 90.5099 -85.5952 -82741.8 -0.307363 0.750675 -39.8079 -27629.9 -1613.83 63.4766 0.05 
13957 1 -0.598618 -0.80408 6.49393 0 0 0 -0.438965 658.011 -81583.4 0 1.43987e+07 -39.8079 59375.1 20431 -1552.29 0.05 
3281 1 -1.80491 -0.499433 6.50483 0 0 0 79.8529 308.959 -80747.1 -0.20804 1167.74 -39.8079 26017.5 -1559.52 -5358.65 0.05 
9961 1 -3.5397 -0.450631 6.49595 0 0 0 484.909 185.325 -80410.8 7.09209e+06 446.937 -39.8079 31142.8 -24806.9 -9770.97 0.05 
7835 1 -1.02268 -0.109069 6.55231 0 0 0 265.872 325.825 -79933.1 0 0.603523 -39.8079 -18124.5 -28720.3 5095.93 0.05 
13010 1 -2.89124 0.484671 6.58112 0 0 0 451.052 282.257 -78615.9 -0.0147595 -866.571 -39.8079 11212.3 -23202.4 2727.87 0.05 
11203 1 -0.298395 0.769673 6.57235 0 0 0 59.4273 40.8787 -78279 0 -2.8548e+06 -39.8079 -16840.2 -19091.4 7106.99 0.05 
6997 1 -1.25696 -0.800544 6.62693 0 0 0 7.76568 2018.05 -77910.7 -0.0775317 1.20403e+07 -39.8079 104188 -3819 10772.9 0.05 
5927 1 -0.69344 -0.725467 6.60551 0 0 0 0.751385 4255.29 -78576.9 0 492908 -39.8079 45653.4 -463.853 2434.88 0.05 
12277 1 -2.53123 -0.702213 6.64786 0 0 0 325.726 565.236 -76782.4 -1.19373 218459 -39.8079 5654.59 -17783.4 -7973.42 0.05 
3539 1 -0.255625 -0.676445 6.67742 0 0 0 229.158 250.849 -76730.4 0 95160.7 -39.8079 -28886.6 8081.73 7369.33 0.05 
7469 1 -0.105048 -0.651751 6.67798 0 0 0 4.7581 46.733 -76297.7 0 45534.5 -39.8079 -2407.67 -5808.57 -2764.24 0.05 
10018 1 -2.74483 -0.123251 6.64686 0 0 0 265.188 264.743 -77504.8 -1.79907 0.903345 -39.8079 -8288.21 -4563.39 -8281.17 0.05 
11555 1 -0.792877 -0.550736 6.73789 0 0 0 363.825 -220.848 -74082.9 0 3509.17 -39.8079 -11791.8 -17522.3 961.235 0.05 
11344 1 -0.267182 -0.565376 6.72369 0 0 0 5.43804 -4.49476 -75193.8 0 4905.76 -39.8079 23001.7 -936.71 4012.35 0.05 
6901 1 -0.0537499 0.0372463 6.71905 0 0 0 0.461508 -3.09134 -76635.4 0 -0.0214049 -39.8079 -22917.7 104160 1454.02 0.05 
13458 1 -3.34246 -0.10983 6.79503 0 0 0 181.794 -41.682 -73559 9385.22 0.617387 -39.8079 18407.7 -12866.5 -4957.3 0.05 
2425 1 -2.46218 0.235799 6.77545 0 0 0 66.0808 471.966 -74051.8 -0.995039 -10.0103 -39.8079 5905.47 -5917.71 7310.86 0.05 
12466 1 -2.08356 -0.210568 6.80442 0 0 0 300.262 151558 -73491 -0.381746 6.26033 -39.8079 5353.66 -9415.89 6519.21 0.05 
8541 1 -1.63814 0.145461 6.81101 0 0 0 6.86351 25451 -73294.3 -0.15014 -1.58722 -39.8079 13423.6 -24549.3 -4350.63 0.05 
2973 1 -1.87776 -0.317327 6.89151 0 0 0 120.55 77.8663 -70439.4 -0.241892 41.6904 -39.8079 -6675.36 -4118.29 2660.5 0.05 
8206 1 -1.54291 -0.603126 6.92876 0 0 0 162.591 278.136 -70272.8 -0.125991 12257.8 -39.8079 -8246.42 12291.5 -8980.09 0.05 
8830 1 -2.19811 -0.0747476 6.94219 0 0 0 291.889 597.368 -69261.2 -7.98088e+06 1.03221e+07 4.4841e+08 1628.79 -5049.41 -561.991 0.05 
8867 1 -3.37036 -0.00851454 6.94134 0 0 0 175.649 -142.955 -68445.3 19149 0.000252051 -39.8079 -12620.4 676.409 961.516 0.05 
14013 1 -3.30282 -0.811653 7.00186 0 0 0 5.07715 1595.31 1.61939 1.70421e+06 1.31063e+07 659374 -811.532 4.4971 3368.87 0.05 
196 1 -3.09803 -0.802533 7.009 0 0 0 1.11119 1919.37 -169.496 50785.4 4.76999e+06 -661582 -7830.16 470.109 319.159 0.05 
12327 1 -1.10086 -0.811368 7.00054 0 0 0 1.59984 737.705 1.47189 1.01034e+06 1.82865e+07 718117 -5455.85 83.5178 3959.06 0.05 
6695 1 -0.781354 -0.813338 7.00084 0 0 0 -0.250862 1055.88 -2.07963 -94986.5 2.24812e+07 -204306 -1083.49 -4.54953 286.18 0.05 
13221 1 -0.46026 -0.815803 6.99614 0 0 0 1.68672 1037.36 -267.184 347196 1.85064e+07 1.32723e+06 -8936.06 -3339.82 -673.661 0.05 
9943 1 -2.92944 -0.761726 7.0059 0 0 0 133.477 538.485 -562.955 202201 2.95636e+06 -1.1547e+06 -1343.91 12334.5 -2062.98 0.05 
13855 1 -1.76185 -0.753325 7.00205 0 0 0 37.8093 289.676 -75.2162 -464054 5.27888e+06 1.64186e+06 -3379.44 3680.5 -5496.08 0.05 
12243 1 -0.703256 -0.747322 6.99947 0 0 0 79.2819 320.794 -334.437 0 1.1304e+06 -39.8079 -5970.99 2279.07 -7839.35 0.05 
11028 1 -0.585259 -0.763286 6.99775 0 0 0 -0.0706845 247.374 -393.116 342123 1.89593e+06 -990212 -3547.82 -600.783 4989.63 0.05 
5466 1 -0.115586 -0.778862 7.00493 0 0 0 -1.06776 489.116 -133.28 0 4.28964e+06 -39.8079 -10239 -3204.55 -3795.08 0.05 
13426 1 -3.28264 -0.732239 7.00829 0 0 0 260.358 210.702 -1.85005 3.91522e+07 3.18648e+07 -2.33477e+06 -1468.21 4172.06 -976.518 0.05 
9896 1 -3.06301 -0.701336 7.00774 0 0 0 310.93 61.6258 -234.731 37.782 212122 -39.8079 5202.11 -940.002 -4373.98 0.05 
11386 1 -2.47833 -0.714399 7.00333 0 0 0 283.714 261.304 -428.156 -725083 673228 -72798.5 382.715 1518.25 -804.467 0.05 
11448 1 -3.34857 -0.658883 7.00402 0 0 0 370.743 81.8133 -173.849 7.40707e+07 7.83654e+07 -2.95285e+08 -6338.42 -1795.12 -127.684 0.05 
3838 1 -2.30316 -0.658168 6.98555 0 0 0 339.474 -54.8833 -68015.7 1.18467e+07 2.89715e+06 8.84367e+08 14978.8 -11842.2 4425.96 0.05 
9043 1 -2.27379 -0.662267 7.00096 0 0 0 341.846 0.727151 -184.253 -1.69541e+07 1.56171e+06 -4.97779e+08 -140.928 -1043.93 -143.465 0.05 
13214 1 -1.69885 -0.638425 7.00669 0 0 0 338.141 265.66 -157.48 -597778 516852 -614508 1735.21 2164.04 6025.47 0.05 
13698 1 -0.541775 -0.63253 6.99872 0 0 0 356.473 93.6694 -238.403 1.50588e+06 -2.76843e+08 8.0044e+06 3340.09 -139.454 1502.3 0.05 
3890 1 -3.45081 -0.60455 7.00267 0 0 0 446.381 3.89043 -198.575 2.11582e+07 3.9326e+07 -3.10161e+08 -618.11 10279.5 912.741 0.05 
14036 1 -2.36875 -0.625893 6.99967 0 0 0 392.248 175.585 -181.908 5.10745e+06 -4.31987e+06 -3.86587e+08 -3831.58 8503.66 -5043.14 0.05 
9387 1 -1.88164 -0.631016 6.99862 0 0 0 362.588 410.244 -203.909 -0.243879 25489.4 -39.8079 -10148.1 -3104.27 4983.85 0.05 
13329 1 -1.32494 -0.592784 7.00407 0 0 0 430.604 256.36 -0.00474119 -0.0865716 9461.71 -39.8079 -1941.81 4204.42 -4716.37 0.05 
5912 1 -0.352273 -0.595442 7.00124 0 0 0 423.986 404.213 -70.2555 0 10106.7 -39.8079 -8306.81 7485.19 2955.8 0.05 
11316 1 -2.80894 -0.55597 7.00162 0 0 0 287.696 210.026 -3.93195 -1.62221 3951.01 -39.8079 -3944.5 4585.05 -5793.04 0.05 
11479 1 -2.45559 -0.533074 7.00004 0 0 0 302.579 220.533 -309.932 1.64788e+06 272990 -158795 -3237.98 -6282.96 6475.55 0.05 
3581 1 -1.7392 -0.534764 7.00863 0 0 0 306.936 252.112 -385.312 -2.11947e+06 3.80554e+07 422182 -8990.4 2405.99 2633.1 0.05 
12594 1 -0.811401 -0.546918 7.00559 0 0 0 301.709 281.669 -327.71 -604891 -75348.4 -548461 227.977 7020.76 4658 0.05 
10556 1 -0.706128 -0.537276 7.00788 0 0 0 306.495 340.345 -250.099 -843422 -721752 1.37228e+06 1436.36 -1148.22 -3317.84 0.05 
9307 1 -0.257079 -0.52971 7.00081 0 0 0 289.382 485.801 -288.794 0 2206.59 -39.8079 549.015 3441.22 1945.48 0.05 
12205 1 -3.11817 -0.502859 7.00293 0 0 0 226.082 83.7853 -152.658 -6.88119e+06 1.90507e+07 -4.26787e+08 -3070.28 3142.51 4629.24 0.05 
7966 1 -2.01946 -0.516642 7.00039 0 0 0 271.075 398.969 -67.7064 -0.329519 1669.41 -39.8079 -2696.06 2518.34 -512.502 0.05 
7434 1 -1.82323 -0.489227 7.00687 0 0 0 27.4844 10251.4 -245.99 -1.24436e+06 -1.09596e+08 -2.68183e+06 477.959 2622.47 -1042.92 0.05 
10984 1 -1.50064 -0.505453 6.99742 0 0 0 246.33 111.235 -393.21 -8.57085e+06 5.04133e+08 3.61474e+06 -2560.67 4259.64 1870.05 0.05 
13525 1 -1.36991 -0.487535 7.00864 0 0 0 215.838 323.795 -55.1335 -700894 -576845 -267961 -3516.37 1951.68 4187.63 0.05 
10082 1 -0.0747185 -0.517802 7.00116 0 0 0 -1.11599 55354.5 -107.546 1.13903e+06 -5.78593e+08 1.84951e+06 -57874.8 -2336.94 -33478.9 0.05 
5517 1 -3.3792 -0.433823 6.99996 0 0 0 6908.92 -2.54788 -1.18174 -5.17918e+07 -779820 -194840 1.47951 -6278.51 2911.14 0.05 
6295 1 -3.22168 -0.469683 7.00523 0 0 0 127.988 325.598 -202 669.808 644.757 -39.8079 -7466.71 412.582 5921.79 0.05 
13644 1 -2.15678 -0.468193 6.99889 0 0 0 112.019 48.5351 -175.272 -0.454218 626.304 -39.8079 7985.45 350.986 5409.37 0.05 
7418 1 -1.68382 -0.447544 6.99575 0 0 0 0.91202 281.223 -280.059 -1.11812e+06 3.45808e+07 -1.86852e+08 -433.931 -2615.44 1311.28 0.05 
3483 1 -0.638066 -0.470066 7.00936 0 0 0 133.573 132.992 -5.11699 843422 725003 -1.37236e+06 -4367.52 1568.27 2251.57 0.05 
6072 1 -3.06716 -0.414868 7.00465 0 0 0 3.30902 64.5193 -100.206 823837 9848.58 74076.4 -390.495 -4226.18 1272.94 0.05 
11339 1 -2.07376 -0.371136 7.00238 0 0 0 4.48103 199.229 -311.771 -0.373144 105.671 -39.8079 -714.744 702.896 4663.71 0.05 
11387 1 -1.74262 -0.368651 7.00341 0 0 0 147.055 12768.6 -67473.1 -1.61851e+06 -8.57729e+07 4.4193e+08 60541.4 -11371 -10407.8 0.05 
12492 1 -1.42302 -0.400636 7.00371 0 0 0 0.290928 283.972 -444.797 -0.10206 178.064 -39.8079 -5414.35 134.491 4899.75 0.05 
2539 1 -1.16148 -0.407416 7.00889 0 0 0 5.61478 126.879 -2.84649 -574209 7.42693e+07 -1.80837e+06 -1199.23 -37.3291 -4008.8 0.05 
6261 1 -0.775935 -0.369343 6.99456 0 0 0 1.17071 296.459 -309.817 1.79483e+07 -7.46611e+08 -1.84927e+07 -2144.88 3753.83 -40.539 0.05 
11157 1 -0.354936 -0.408928 7.00165 0 0 0 1.10121 298.033 -1.75491 2.47666e+06 6.12145e+07 -1.6955e+06 -3863.48 0.446744 4572.25 0.05 
12860 1 -0.239991 -0.404878 7.00327 0 0 0 3.75714 471.621 -1.05675 0 192.151 -39.8079 -3509.92 38.6517 -988.115 0.05 
3298 1 -2.40028 -0.348547 7.00405 0 0 0 65.2207 251.122 -207.485 -0.844148 71.3563 -39.8079 -7407.33 4969.75 -8391.18 0.05 
13080 1 -1.62782 -0.324546 7.00379 0 0 0 197.269 174.545 -0.750418 500130 -843789 -4993.36 -1204.54 1299.38 -11182.2 0.05 
11927 1 -1.26204 -0.327946 7.00104 0 0 0 190.096 42.7349 -2.64694 -1.21e+06 8.06236e+07 -866852 -159.516 1441.26 -5432.66 0.05 
6813 1 -1.00677 -0.330963 6.98346 0 0 0 7.34374 -38.4355 -68249.9 -2.86418e+06 7.3788e+06 4.8666e+08 -2288.2 18818.1 -1327.37 0.05 
11626 1 -3.32683 -0.29257 7.00715 0 0 0 303.065 -0.212844 -265.272 6423.64 27.2294 -39.8079 4436.21 -2902.13 -4277.21 0.05 
246 1 -1.97359 -0.304581 7.00769 0 0 0 260.792 203.381 -37.3537 896742 -1.42135e+08 -5.16586e+06 -3733.31 3032.5 -9787.74 0.05 
13413 1 -0.750836 -0.269785 7.0076 0 0 0 338.341 120.898 -75.2859 -3.31685e+07 -7.7589e+08 1.0079e+07 4569.31 1427.21 -1508.51 0.05 
13443 1 -2.62084 -0.23201 7.00188 0 0 0 313.393 306.637 -303.102 -1.4893 9.34164 -39.8079 -9285.9 -1777.63 1566.2 0.05 
4622 1 -1.81839 -0.214896 7.01011 0 0 0 246.191 5.65832 -4.21582 -0.213839 6.79651 -39.8079 703.339 918.293 5645.47 0.05 
11055 1 -1.58352 -0.222841 7.0081 0 0 0 284.437 77.1732 -126 -0.135649 7.88796 -39.8079 -3994.61 5233.94 1669.15 0.05 
9031 1 -1.07293 -0.25372 7.00495 0 0 0 334.719 288.981 -1.45959 0 13.8128 -39.8079 -2048.04 1858.17 5458.71 0.05 
8291 1 -0.433878 -0.222209 7.00798 0 0 0 1.86652 -302.382 -244.074 6.07545e+06 -1.8808e+08 4.20265e+06 707.45 -5924.87 44.9117 0.05 
10863 1 -3.47255 -0.176286 7.00031 0 0 0 4410.88 -9.77868 -474.894 -4.79345e+07 -3.26264e+06 413388 -6505.68 -465.209 6035.21 0.05 
11894 1 -3.17237 -0.176194 7.00151 0 0 0 96.5579 9.54952 -5.49844 4334.68 2.31956e+06 -1.2146e+06 -214.242 580.34 3783.85 0.05 
12122 1 -0.56174 -0.188792 6.99405 0 0 0 -0.486486 -280.04 -438.813 0 4.08579 -39.8079 1571.51 2273.6 -4490.38 0.05 
13658 1 -0.159217 -0.167856 6.99573 0 0 0 2.35241 -57.6743 -339.231 6.73288e+06 1.75213e+08 2.07687e+06 4294.53 -2384.67 -5198.39 0.05 
12127 1 -2.82774 -0.110469 7.00516 0 0 0 0.658221 -16.5174 -176.056 -1.45124 0.629197 -39.8079 -349.767 7175.76 -685.997 0.05 
7242 1 -1.01374 -0.156103 7.00301 0 0 0 2.10499 301.785 -440.675 0 2.03356 -39.8079 -4537.36 4110.27 -3968.13 0.05 
6839 1 -2.93513 -0.0575022 7.00059 0 0 0 91.9205 286.016 -1.03185 2.49195 0.0804393 -39.8079 -1689.84 3566.96 -6522.54 0.05 
8449 1 -2.52343 -0.0607015 7.00873 0 0 0 162.811 -4.52052 -328.311 -1.16971 0.0950206 -39.8079 -1837.05 8846.9 -3745.01 0.05 
9952 1 -1.27416 -0.0748993 7.00528 0 0 0 84.0763 1.56742 -1.39538 -0.0797033 0.182329 -39.8079 475.418 3136.13 -2102.83 0.05 
13065 1 -0.446179 -0.0738622 7.00081 0 0 0 60.1186 -390.178 -1.95421 0 0.174562 -39.8079 5055.88 2363.08 -659.839 0.05 
11753 1 -2.68185 -0.00637087 7.00306 0 0 0 159.159 81.839 -133.434 1.84203e+06 179160 -452468 5751.32 1769.4 -1454.67 0.05 
13038 1 -2.38178 -0.0443042 7.00759 0 0 0 163.219 -147.103 -292.146 -1.15795e+07 -3.24413e+08 7.13926e+06 8478.9 7023.23 1736.02 0.05 
9721 1 -2.2115 -0.045564 7.00045 0 0 0 123.266 -78.5204 -249.701 8.99114e+06 -6.88761e+07 -4.5033e+08 4635.01 6403.26 -4865.69 0.05 
11177 1 -1.657 -0.0143705 6.99934 0 0 0 139.036 283.938 -269.061 -1.77673e+06 -887706 -505162 -7260.3 12439.8 -1355.76 0.05 
10773 1 -0.272067 -0.039293 6.99955 0 0 0 126.001 218.709 -136.875 0 0.0251741 -39.8079 4214.1 7977.33 -7016.14 0.05 
9438 1 -3.46305 0.0213385 7.0025 0 0 0 4597.92 -62.5506 -168.912 -5.21684e+07 965021 -2.41298e+06 -1068.49 -6979.9 -2201.92 0.05 
1157 1 -1.0518 0.0235127 7.00781 0 0 0 115.395 327.817 -0.866391 0 -0.00533578 -39.8079 -1803.03 4161.78 4188.08 0.05 
2032 1 -0.422468 0.0468265 6.99715 0 0 0 1.15672 -302.125 -333.327 0 -0.0429119 -39.8079 5672.86 1259.79 -199.496 0.05 
5587 1 -2.2741 0.0577122 7.00747 0 0 0 50.6416 -175.005 -95.9984 2.01292e+06 -8.61155e+07 3.40527e+06 5847.54 5971.33 -2531.89 0.05 
4228 1 -2.03693 0.0877074 7.00414 0 0 0 119.611 -87.8968 -1.67872 -0.342839 -0.299575 -39.8079 1024.1 4523.61 4066.53 0.05 
5683 1 -1.90223 0.0561065 7.00452 0 0 0 29.0347 -108.018 -0.374624 1.0489e+06 -83750.7 30229 848.79 1018.56 -5115.46 0.05 
9104 1 -0.713143 0.0645386 7.00811 0 0 0 90.397 82.6513 -193.184 -249080 159062 1.30117e+06 4313.48 8551.66 -4085.74 0.05 
11421 1 -3.46615 0.154825 7.00205 0 0 0 4549.74 65.9895 -182.774 -4.06024e+07 1.0979e+06 -1.35451e+06 -1612.57 -3300.67 1727.72 0.05 
1592 1 -1.43703 0.120876 7.00494 0 0 0 172.52 34.577 -227.984 4.18909e+06 -5.12684e+08 869485 -688.812 91.1694 1328.12 0.05 
8636 1 -0.447912 0.153561 7.00615 0 0 0 120.445 -413.901 -0.683992 0 -1.91881 -39.8079 4452.07 4363.29 3557.15 0.05 
3720 1 -0.3206 0.118183 7.00091 0 0 0 143.364 313.586 -1.43718 0 -0.785664 -39.8079 -3241.05 5521.36 1523.92 0.05 
11518 1 -3.24934 0.183202 6.99984 0 0 0 3.89532 -225.388 -229.923 1164.95 -3.64645 -39.8079 -2998.39 -2600.31 5901.16 0.05 
8568 1 -3.02178 0.186647 7.00796 0 0 0 2.90836 224.206 -0.41099 17.9443 -3.91217 -39.8079 366.244 35.2228 6099.21 0.05 
11832 1 -2.59851 0.186805 7.00209 0 0 0 4.56071 99.0722 -2.75083 -1.41358 -3.92476 -39.8079 -3087.6 77.6596 2571.15 0.05 
11037 1 -1.58191 0.170018 7.00053 0 0 0 73.8741 40.2106 -118.72 -0.135249 -2.76495 -39.8079 -1760.1 3769.79 26.9101 0.05 
5472 1 -1.06038 0.186078 7.00205 0 0 0 -0.58005 311.801 -1.09828 0 -3.86718 -39.8079 -2556.03 5.25948 2851.06 0.05 
13760 1 -3.56258 0.252899 6.9972 0 0 0 1573.09 -25.4906 -414.612 1.12587e+07 -613525 -239380 4397.18 9658.77 4296.36 0.05 
10467 1 -3.39051 0.223842 7.00622 0 0 0 70.4731 -84.2761 -1.23929 2.99743e+07 98517.8 932543 861.937 2908.34 -3825.19 0.05 