ITEM: TIMESTEP
240000
ITEM: NUMBER OF ATOMS
14052
ITEM: BOX BOUNDS ff pp ff
-3.75 3.75
-1 1
0 10
ITEM: ATOMS id type x y z ix iy iz vx vy vz fx fy fz omegax omegay omegaz radius 
13821 1 -1.59505 -0.511233 5.7478 0 0 0 0.275183 105.575 -171857 -0.138558 1490.26 -39.8079 4511.3 3783.37 -2558.63 0.05 
9412 1 -2.15415 -0.351722 5.73918 0 0 0 1.89465 14.6512 -171840 -0.451339 75.3855 -39.8079 -9278.38 13846.1 5701.27 0.05 
13215 1 -0.227486 -0.106614 5.80059 0 0 0 -0.415757 615.338 -169069 0 0.56039 -39.8079 56.5582 22216.6 -6775.57 0.05 
10206 1 -3.22594 0.653611 5.76941 0 0 0 223.625 -338.337 -170107 728.302 -48046.9 -39.8079 5136.14 -10974 -8981.36 0.05 
12795 1 -2.98843 -0.318423 5.81138 0 0 0 496.068 -76.1835 -168732 9.36692 42.4823 -39.8079 -10403.9 3184.62 3882.04 0.05 
7183 1 -0.750524 -0.362809 5.85682 0 0 0 -0.775491 310.248 -166448 0 91.3808 -39.8079 -12783.2 -9045.73 -4366.71 0.05 
4371 1 -1.71273 0.398778 5.84415 0 0 0 0.978137 -152.086 -167037 -0.173178 -172.243 -39.8079 17513.9 -2599.57 17.1685 0.05 
11397 1 -0.430417 0.754105 5.85096 0 0 0 0.381765 56.1814 -166689 0 -1.48404e+06 -39.8079 9019.46 16450.5 -5556.43 0.05 
12202 1 -1.69954 -0.493638 5.90557 0 0 0 179.822 82.4995 -164076 -0.1688 1037.81 -39.8079 9591.61 11592.2 3632.57 0.05 
13017 1 -1.4873 -0.797182 5.93321 0 0 0 0.909249 564.123 -163153 -0.114108 1.01871e+07 -39.8079 -24189.3 -7438.98 3021.17 0.05 
10576 1 -3.27121 0.236236 5.91248 0 0 0 288.578 -171.664 -164748 1838.35 -10.0902 -39.8079 -34639.3 13625.1 1203.32 0.05 
8448 1 -0.483479 -0.801094 6.00631 0 0 0 0.508839 327.574 -159922 0 1.23778e+07 -39.8079 -5624.8 -12451.1 599.922 0.05 
11049 1 -2.64959 -0.218453 6.05783 0 0 0 133.741 -5.5785 -157302 -1.58507 7.26721 -39.8079 18.8217 -15907.8 3665.63 0.05 
11202 1 -0.850655 0.249636 6.02721 0 0 0 123.447 238.648 -159224 0 -12.8441 -39.8079 -9912.06 27218.7 2176.75 0.05 
13635 1 -1.11898 0.677343 6.01621 0 0 0 1.12983 -248.744 -159669 0 -97845.2 -39.8079 23219.4 1106.72 3265.97 0.05 
11924 1 -1.4842 -0.41143 6.10648 0 0 0 0.0425372 -132709 -156145 -0.113487 216.264 -39.8079 -713.479 -4098.91 8296.87 0.05 
9405 1 -1.49474 0.136716 6.06739 0 0 0 152.075 67.4589 -157450 -0.115615 -1.28198 -39.8079 -6349.9 -4238.04 -3403.14 0.05 
12319 1 -0.0529323 0.160534 6.07856 0 0 0 -0.207636 85.6351 -158386 0 -2.24686 -39.8079 -4133.99 98548.8 -3973.59 0.05 
13254 1 -1.96442 0.529095 6.10346 0 0 0 -0.150736 27.6455 -155765 -0.291484 -2177.45 -39.8079 -7367.64 -23625.4 3565.41 0.05 
12761 1 -0.541567 0.532301 6.09534 0 0 0 0.273628 -327.087 -156298 0 -2334.02 -39.8079 16792.2 -12762.6 -880.602 0.05 
12566 1 -1.89909 0.27483 6.1704 0 0 0 77.5525 -317.074 -153211 -0.253068 -20.0207 -39.8079 -16700 2013.15 5382.68 0.05 
11242 1 -1.16453 0.57987 6.13263 0 0 0 -0.0422323 -200.704 -155175 0 -6908.11 -39.8079 11388 -13157.8 4496.39 0.05 
12900 1 -3.48999 0.804451 6.1623 0 0 0 309.223 -501.868 -151839 848939 -1.46749e+07 -39.8079 -23920.6 40304.7 -3110.64 0.05 
8681 1 -0.510979 0.826432 6.15507 0 0 0 -0.925695 -691.568 -153783 0 -4.83553e+07 -39.8079 -50699.1 11980.1 1235.89 0.05 
4032 1 -1.64335 0.242477 6.27248 0 0 0 0.993796 310.862 -148998 -0.15162 -11.2968 -39.8079 9126.22 20299.1 3259.07 0.05 
8255 1 -3.29417 -0.429042 6.31834 0 0 0 175.971 68.4649 -146740 3029.12 298.395 -39.8079 -29492.7 -11449 4606.84 0.05 
10609 1 -1.77686 -0.320309 6.29984 0 0 0 1.51252 -165.219 -147349 -0.196578 43.8811 -39.8079 27672.1 -1753.56 3676.46 0.05 
12455 1 -2.35564 -0.309247 6.27485 0 0 0 1.67213 168.304 -148866 -0.750445 36.2861 -39.8079 7925.15 12355.5 -4376.61 0.05 
7677 1 -1.36622 0.537576 6.27964 0 0 0 -0.253296 -136.756 -149126 -0.0927059 -2618.86 -39.8079 -7104.88 7447.28 662.835 0.05 
11415 1 -0.878671 0.828957 6.28928 0 0 0 238.893 -837.427 -148344 0 -5.59888e+07 -39.8079 -96357.5 -10605.3 1405.99 0.05 
12363 1 -3.153 -0.416052 6.42779 0 0 0 355.595 239.596 -142172 185.04 235.188 -39.8079 8225.56 -3555.31 5490.18 0.05 
7639 1 -0.954659 -0.193822 6.42854 0 0 0 -1.0914 165.7 -141912 0 4.51897 -39.8079 15457.6 21674 1082.4 0.05 
13781 1 -2.52494 -0.000991894 6.38475 0 0 0 31.3856 1.24119 -144580 -1.17434 3.98163e-07 -39.8079 5489.15 -18032.1 -657.816 0.05 
6492 1 -1.6985 0.759187 6.39335 0 0 0 110.525 -195.243 -142339 -0.168462 -1.82879e+06 -39.8079 16696.9 -12891.1 2389.16 0.05 
9165 1 -2.43707 -0.769704 6.44209 0 0 0 69.1415 54.0755 -141097 -0.930778 2.85867e+06 -39.8079 -44682.4 13410.2 -3042.24 0.05 
6487 1 -3.36017 -0.32647 6.44387 0 0 0 396.799 223.839 -141599 14674.5 48.7814 -39.8079 12836.7 -22377.9 -7704.65 0.05 
13278 1 -2.04478 0.818684 6.46727 0 0 0 147.39 -1127.86 -140221 -0.349038 -3.12453e+07 -39.8079 -69159.6 7820.31 8625.9 0.05 
11852 1 -2.18633 -0.539797 6.49819 0 0 0 209.781 264.78 -138928 -0.488077 2749.99 -39.8079 11897.3 19456.2 984.161 0.05 
3777 1 -2.74285 -0.227935 6.52065 0 0 0 477.102 -46658.1 -137498 -1.79823 8.66807 -39.8079 2511.96 -4716.12 -2155.11 0.05 
10766 1 -2.77769 0.0272729 6.49783 0 0 0 274.323 -645.343 -139270 -1.76757 -0.00834437 -39.8079 -41199.7 -4787.51 941.861 0.05 
12207 1 -0.638593 0.499524 6.512 0 0 0 -0.261889 -17318 -139063 0 -1169.93 -39.8079 -20262.1 -18969.9 601.985 0.05 
11713 1 -2.15439 -0.245945 6.53451 0 0 0 187.819 -811.193 -137639 -0.451604 12.0234 -39.8079 12852.1 -8865.71 6541.5 0.05 
9454 1 -2.46731 -0.122344 6.53871 0 0 0 23.8613 148.175 -137789 -1.00872 0.881369 -39.8079 8704.99 5585.32 2765.96 0.05 
10622 1 -2.53238 -0.515542 6.62946 0 0 0 149.526 3.08991 -132670 -1.19729 1631.16 -39.8079 -19546.9 30099.5 -1973.68 0.05 
3037 1 -0.656341 0.0307147 6.59159 0 0 0 51.9572 -3.79083 -135437 0 -0.0119451 -39.8079 -3964.81 -4136.05 3439.81 0.05 
9289 1 -0.142857 0.319552 6.59796 0 0 0 1.1644 -131.286 -134108 0 -43.3143 -39.8079 -3624.17 -6460.88 4435.75 0.05 
9291 1 -0.582919 -0.163646 6.65794 0 0 0 0.867404 -55.9492 -132285 0 2.40723 -39.8079 9808.39 -21308.2 -682.456 0.05 
8417 1 -2.5297 -0.723539 6.70485 0 0 0 9.37304 -66461.1 -129879 -1.189 459581 -39.8079 7807.19 -6700.52 1209.71 0.05 
1298 1 -2.32045 -0.556039 6.70282 0 0 0 79.3297 274.912 -130642 -0.684664 3957.22 -39.8079 5833.24 8835.42 -5717.94 0.05 
6601 1 -3.06877 -0.24165 6.69969 0 0 0 222.059 156.804 -130485 41.8166 11.1296 -39.8079 1511.83 7088.19 3380.35 0.05 
11208 1 -0.922919 0.320167 6.78029 0 0 0 -0.489781 -313.998 -127289 0 -43.7747 -39.8079 -18203.6 16205.6 -2992.52 0.05 
10028 1 -3.44918 0.697559 6.76031 0 0 0 386.295 -271.158 -126502 197353 -187044 -39.8079 44558.4 21410.1 2807.04 0.05 
2112 1 -1.37531 -0.396462 6.83634 0 0 0 111.049 -54.5448 -124158 -0.0941286 165.264 -39.8079 1233.91 1872.77 1305.06 0.05 
11214 1 -1.91065 0.818653 6.79254 0 0 0 194.512 -898.887 -125393 -0.259392 -3.11921e+07 -39.8079 -70915.1 587.244 -4847.1 0.05 
206 1 -2.2917 -0.761246 6.85723 0 0 0 83.4541 62.5504 -122356 -0.635751 1.99285e+06 -39.8079 -18401.5 -18084.4 1061.65 0.05 
13478 1 -2.79418 0.408228 6.88882 0 0 0 449.637 -45.6354 -121456 -1.70886 -204.104 -39.8079 -10129.5 -26863.5 2476.92 0.05 
8660 1 -2.90246 -0.785085 6.91696 0 0 0 446.313 430.653 -119847 2.4028e+08 9.17795e+06 -47864.6 14496.5 -15310.8 -7812.74 0.05 
12559 1 -2.86313 -0.772612 6.92775 0 0 0 32552.7 36.8909 -119776 -2.4028e+08 -224793 47785 -43704.8 -25933.8 -13373.7 0.05 
9911 1 -2.30507 -0.190177 6.92086 0 0 0 90.3066 -152.24 -121287 -0.657985 4.20132 -39.8079 -9458.35 6156.14 792.257 0.05 
4730 1 -2.35224 0.573734 6.90395 0 0 0 334.723 -235.047 -121644 -0.743784 -5968.29 -39.8079 20948.1 -7961.38 -4366.16 0.05 
1680 1 -1.26734 -0.89127 7.00983 0 0 0 2.98192 78645 1.05746 -5.68478e+06 4.92751e+09 5.40436e+06 -55032.2 38.3332 385.153 0.05 
14013 1 -3.30285 -0.836265 7.00185 0 0 0 0.0344181 1434.22 -0.098788 3680.42 8.66472e+07 -39.8079 -957.997 4.39134 3796.95 0.05 
12327 1 -1.10086 -0.821983 7.00052 0 0 0 0.0442302 623.527 -0.499295 159316 5.35358e+07 1.45583e+06 -5428 -4.98605 4109.11 0.05 
6695 1 -0.781351 -0.828582 7.00087 0 0 0 0.0781568 908.297 -0.798343 0 5.47753e+07 -39.8079 -1135.51 -2.30872 278.721 0.05 
13221 1 -0.460278 -0.831473 7.00045 0 0 0 0.637507 894.541 -272.936 234702 5.94948e+07 1.6005e+06 -9746.25 -3174.42 -515.273 0.05 
13855 1 -1.76248 -0.756492 7.00277 0 0 0 43.0973 140.609 -0.0673274 8.6355e+06 -4.32912e+08 -1.56899e+06 -18.1338 652.409 -5102.61 0.05 
12243 1 -0.704451 -0.751756 7.00116 0 0 0 73.0282 300.834 0.0980328 0 1.34938e+06 -39.8079 -5580.98 336.284 -7901.36 0.05 
11028 1 -0.585251 -0.767166 7.00049 0 0 0 -0.984516 236.722 -0.455922 0 2.5618e+06 -39.8079 -3918.86 -7.42684 5029.43 0.05 
5466 1 -0.115562 -0.784399 7.00644 0 0 0 -0.314561 365.59 -1.02516 0 5.52791e+06 -39.8079 -6037.33 -0.618337 -1906.12 0.05 
13426 1 -3.28639 -0.735107 7.00829 0 0 0 232.605 167.549 1.12887 2551 704855 -39.8079 -1244.43 3585.95 138.524 0.05 
11386 1 -2.48287 -0.718566 7.00747 0 0 0 283.658 259.707 -189.377 -1.05124 384476 -39.8079 1642.02 7663.69 -797.809 0.05 
11448 1 -3.35407 -0.659183 7.00548 0 0 0 340.214 0.440844 -0.21999 12553.7 56527.9 -39.8079 0.00307506 769.836 372.976 0.05 
9043 1 -2.27918 -0.662277 7.00117 0 0 0 336.617 0.498012 -4.94748 -0.615716 61939.5 -39.8079 234.082 1460.24 -132.83 0.05 
9387 1 -1.88745 -0.6355 7.00188 0 0 0 369.85 59.5926 -148.342 -3.05146e+07 1.53706e+08 -6.9545e+08 -6245.43 -1542.98 -4965.37 0.05 
7434 1 -1.82364 -0.654611 7.00843 0 0 0 18.2315 10452.1 -5.67886 9.00309e+06 -5.30781e+08 -220511 5362.83 574.459 -1188.01 0.05 
13214 1 -1.70427 -0.641967 7.00819 0 0 0 340.058 -5.36682 -0.370384 -39750.1 73319.1 -342312 83.4058 599.121 2111.41 0.05 
13698 1 -0.547548 -0.636057 7.0008 0 0 0 363.196 121.567 -5.98209 -1.01479e+06 7.84748e+07 -3.44864e+06 -2059.64 2478.44 1987.2 0.05 
3890 1 -3.45792 -0.604567 7.00435 0 0 0 444.192 0.101879 -0.0222382 265147 12714.5 -39.8079 1.2815 3947.3 792.38 0.05 
14036 1 -2.37506 -0.628688 7.00096 0 0 0 394.27 174.634 -77.2311 -0.789733 23930.4 -39.8079 -5492.48 5111.42 -5038.93 0.05 
4350 1 -1.94049 -0.600123 6.97286 0 0 0 90.2629 631.576 -117724 5.63589e+07 4.60679e+07 1.67566e+09 -11838.7 -41268.3 4142.19 0.05 
13329 1 -1.33183 -0.596093 7.00407 0 0 0 431.973 46.1288 0.132106 -0.0875597 10271.7 -39.8079 -1454.34 4203.75 -11198.5 0.05 
3659 1 -1.15949 -0.61431 6.99377 0 0 0 7.52093 427.526 -117871 -3.04571e+07 6.53872e+07 1.68588e+09 2883.27 9316.99 -445.864 0.05 
5912 1 -0.359063 -0.601507 7.00151 0 0 0 425.117 292.333 -2.39364 -593143 6.72622e+07 -1.74561e+06 -4005.71 4419.36 5507.19 0.05 
11316 1 -2.81357 -0.558823 7.00169 0 0 0 293.218 47.2203 -2.64325 720176 8.47007e+07 -2.81483e+06 -1144.4 4730.6 -3960.53 0.05 
11479 1 -2.46039 -0.536597 7.005 0 0 0 299.364 220.072 -309.647 -0.990329 2563.26 -39.8079 -3219.48 -6393.67 6509.08 0.05 
12594 1 -0.816234 -0.549801 7.0068 0 0 0 299.161 96.8515 -1.24549 3.57435e+07 -9.74292e+08 915156 -79.9722 4245.23 1522.61 0.05 
12444 1 -0.77891 -0.572588 7.00795 0 0 0 4.22862 -137416 -110.018 -1.23394e+07 2.86732e+09 -1.24443e+07 6313.62 -3983.84 -10473.7 0.05 
10556 1 -0.71106 -0.54169 7.00977 0 0 0 311.245 210.92 -0.444692 -2.76258e+07 -7.96434e+08 -440181 -5298.02 3831.65 1286.73 0.05 
9307 1 -0.261729 -0.536829 7.00187 0 0 0 289.051 430.02 0.584258 3.84549e+06 1.03823e+08 1.40365e+06 -3571.02 4726.24 644.975 0.05 
6295 1 -3.22372 -0.473811 7.00849 0 0 0 128.827 71.7629 -204.395 -3.80951e+06 1.18215e+08 -1.10371e+06 -5558.49 425.611 5140.6 0.05 
12205 1 -3.12182 -0.503306 7.00421 0 0 0 228.742 -108.23 -76.9803 737981 4.74226e+07 -707098 -2863.95 2296.3 627.48 0.05 
7966 1 -2.0238 -0.52112 7.00055 0 0 0 271.21 261.382 -1.14489 -0.332769 1835.46 -39.8079 -5905.43 4623.78 3846.23 0.05 
10984 1 -1.50458 -0.50683 7.00366 0 0 0 244.568 161.341 -311.385 3.28871e+07 1.88984e+06 -8.36148e+08 -3865.19 3136.57 490.819 0.05 
13047 1 -1.47143 -0.505785 6.9647 0 0 0 5.24035 121.699 -119009 -3.26135e+07 -1.72349e+06 8.35157e+08 -5227.43 -3753.89 1983.61 0.05 
13525 1 -1.3734 -0.492734 7.00951 0 0 0 220.987 326.229 -54.255 -1.55389e+06 -652313 -75922.6 -3494.55 1954.38 4051.91 0.05 
5517 1 -3.49092 -0.433768 6.99998 0 0 0 7083.72 -5.61478 -2.92633 -6.75846e+07 1.20812e+06 138839 0.862961 -2728.24 4149.01 0.05 
13644 1 -2.15855 -0.469059 7.00145 0 0 0 110.369 295.128 -157.608 -0.456162 636.962 -39.8079 3610.94 -316.962 8389.43 0.05 
7418 1 -1.68383 -0.450922 6.99999 0 0 0 0.514568 2.61507 -265.136 -0.163765 449.416 -39.8079 5489.76 -2169.14 -97.8091 0.05 
3483 1 -0.640183 -0.471806 7.0094 0 0 0 131.888 12.1587 0.0697365 165104 697904 -774655 380.078 1760.21 2060.92 0.05 
10082 1 -0.0747423 -0.473775 7.00177 0 0 0 4.79518 -57242.2 -10.2721 -8.65163e+06 1.37303e+09 -1.14159e+07 -50042.7 19.0708 -29959.3 0.05 
6072 1 -3.06718 -0.415296 7.00626 0 0 0 0.664541 -116.375 -100.484 9.34011e+06 -3.91408e+08 961116 -2660.61 -4321.62 -1311.54 0.05 
11339 1 -2.07382 -0.3742 7.00585 0 0 0 2.34727 428.744 -117.105 -0.373194 111.495 -39.8079 -6443.07 -4632.08 -1266.77 0.05 
12492 1 -1.42302 -0.405179 7.00961 0 0 0 -0.51558 284.147 -257.148 -0.10206 193.196 -39.8079 -2755.5 5907.27 4906.39 0.05 
2539 1 -1.1615 -0.407865 7.0089 0 0 0 0 0.00119928 -0.00023544 0 202.774 -39.8079 0 0 0 0.05 
6261 1 -0.775941 -0.372349 6.9995 0 0 0 0.290064 1.58258 -309.04 30744.2 214337 -54610.8 -1146.49 3747.65 36.9743 0.05 
11157 1 -0.354933 -0.413056 7.00165 0 0 0 -0.363799 253.588 -0.0297672 0 222.733 -39.8079 -2619.93 -3.18921 5536.32 0.05 
12860 1 -0.240008 -0.410044 7.00328 0 0 0 0.00752756 181.048 0.129287 -754475 8.23828e+07 756900 -1750.96 0.123569 -5726.66 0.05 
3298 1 -2.40132 -0.352565 7.00737 0 0 0 65.2208 251.121 -207.485 -0.846484 76.493 -39.8079 -7407.33 4969.75 -8391.18 0.05 
13080 1 -1.63049 -0.326816 7.0038 0 0 0 0.497336 54.0028 -0.241825 -0.147999 49.0728 -39.8079 -97.0824 9.16583 3886.98 0.05 
11927 1 -1.26368 -0.325563 7.00107 0 0 0 0.226222 -336.624 -0.503241 -0.0783714 48.0266 -39.8079 1481.56 0.0700482 588.26 0.05 
246 1 -1.97776 -0.308206 7.00776 0 0 0 260.68 227.106 -0.510784 -0.300183 35.6429 -39.8079 -4401.5 1334.13 -10537.5 0.05 
13413 1 -0.751372 -0.272288 7.00877 0 0 0 1.27843 2.7017 -73.0995 295270 1.6913e+06 -84382.6 3194.47 48.1468 35.1439 0.05 
13443 1 -2.62586 -0.236643 7.00673 0 0 0 313.471 235.226 -303.185 -1.50624 10.1651 -39.8079 -8922.86 -1780.99 4818.83 0.05 
11055 1 -1.5872 -0.224687 7.00949 0 0 0 0.0299348 245.704 -0.216211 -0.13657 8.16304 -39.8079 -5405.49 -1.27591 3018.14 0.05 
9031 1 -1.07493 -0.255679 7.00496 0 0 0 -0.349827 0.558157 -0.133415 0 14.3015 -39.8079 -36.4954 -0.289483 8.36268 0.05 
10863 1 -3.54416 -0.17619 7.00654 0 0 0 4540.94 -3.11527 -2.2508 -2.09657e+07 -1.41747e+06 -1.39177e+06 35.8447 -532.074 4841.34 0.05 
11894 1 -3.17391 -0.176286 7.00156 0 0 0 96.1751 2.59569 -1.4465 98615.8 1.39744e+06 -859445 -57.3635 716.872 4032.59 0.05 
4622 1 -1.82229 -0.210196 7.01014 0 0 0 134.036 -329.958 0.224376 5.02259e+08 -1.72017e+06 -2.32292e+06 1563.09 491.658 2746.18 0.05 
7242 1 -1.01376 -0.157911 7.00741 0 0 0 0.575333 0.379945 -184.543 0 2.11851 -39.8079 3269.03 5355.09 3.02773 0.05 
12122 1 -0.561727 -0.185342 7.00108 0 0 0 -1.65679 -0.607845 -392.515 1.03284e+07 -5.89962e+06 -6.19359e+08 -2280.54 456.129 -23.6553 0.05 
9947 1 -0.484505 -0.204572 6.98521 0 0 0 -0.25016 -341.986 -117902 1.35661e+07 -2.68718e+06 1.38483e+09 -9955.19 12472.1 10095.5 0.05 
13658 1 -0.159218 -0.166072 7.00013 0 0 0 -0.0761403 -113.649 -100.581 0 2.53865 -39.8079 -2639.43 -3401.52 -4764 0.05 
12127 1 -2.82774 -0.110193 7.00657 0 0 0 0.149023 -17.5509 -51.8904 -1.4512 0.624073 -39.8079 -1219.28 2152.68 -731.6 0.05 
6839 1 -2.9366 -0.0588958 7.0006 0 0 0 91.1857 -7.34026 -0.64512 2.6117 0.0865849 -39.8079 -34.7173 3569.02 -2026.01 0.05 
9952 1 -1.2755 -0.0713653 7.0053 0 0 0 83.8854 -335.815 -0.280615 -0.0798758 0.156824 -39.8079 779.265 3131.86 -3371.85 0.05 
13065 1 -0.446808 -0.0701547 7.00084 0 0 0 0.778986 -20.6655 -0.085392 5.48342e+06 -1.76603e+08 -741999 239.508 5.59501 832.859 0.05 
11753 1 -2.68435 -0.00873853 7.0052 0 0 0 154.373 10.049 -134.261 3.25334e+06 1.62682e+08 1.00191e+06 2153.57 1697.79 4453.79 0.05 
13038 1 -2.38437 -0.0462699 7.01027 0 0 0 161.174 206.728 -0.837887 374934 -194675 -538128 -2291.66 5519.25 -8064.37 0.05 
9721 1 -2.21347 -0.045009 7.00071 0 0 0 122.633 106.586 -0.219303 -0.521855 0.0380368 -39.8079 -727.851 4821.91 3058.83 0.05 
11177 1 -1.65927 -0.0166907 7.00187 0 0 0 143.535 -18.6235 -0.741971 -137731 -285101 -509698 886.318 5532.57 78.7422 0.05 
10773 1 -0.273207 -0.043094 7.00175 0 0 0 0.335501 276.649 -136.982 0 0.0333237 -39.8079 1679.57 3050.63 -4799.96 0.05 
9438 1 -3.53858 0.0218871 7.00378 0 0 0 4826.29 4.40509 2.00444 -1.8789e+07 -281270 -446021 -112.404 2090.51 -1523.15 0.05 
1157 1 -1.05365 0.0220039 7.00782 0 0 0 106.802 0.423342 -0.700237 4.21312e+08 -6.18659e+06 1.60839e+07 -32.052 3844.88 2287.89 0.05 
2032 1 -0.422475 0.0502767 7.00115 0 0 0 0 -3.1529e-07 -0.00023544 0 -0.053309 -39.8079 0 0 0 0.05 
5587 1 -2.27488 0.0582498 7.00885 0 0 0 49.1471 -0.000492775 -3.35074e-05 -0.609003 -0.0836974 -39.8079 0.0239871 1769.72 -1519.39 0.05 
4228 1 -2.03884 0.0883352 7.00419 0 0 0 120.351 11.0157 -0.435694 -0.344334 -0.306426 -39.8079 -141.719 4551.21 -2398.37 0.05 
5683 1 -1.90266 0.0578317 7.00453 0 0 0 24.5968 -107.734 -0.226305 688402 177250 -368827 838.241 926.762 -5253.17 0.05 
11421 1 -3.54016 0.155127 7.0034 0 0 0 4711.2 2.09743 1.33403 -4.01404e+07 432142 -988739 -47.8495 1894.71 751.786 0.05 
1592 1 -1.43983 0.117626 7.00855 0 0 0 175.767 236.509 -226.107 -0.105052 -0.77349 -39.8079 -3519.82 91.4354 5863.85 0.05 
3720 1 -0.322291 0.113162 7.00094 0 0 0 -0.642987 314.366 -1.08914 0 -0.680891 -39.8079 -3270.22 -0.33877 1866.9 0.05 
11518 1 -3.2494 0.186169 7.00352 0 0 0 0.614521 -3.52559 -231.29 4.43943e+06 -1.00547e+08 1.21746e+06 -5700.8 -2675.78 75.6892 0.05 
8568 1 -3.02181 0.189884 7.00797 0 0 0 1.26803 -192.696 -0.129812 17.9553 -4.17671 -39.8079 -835.018 12.1587 1442.62 0.05 
11832 1 -2.59856 0.185935 7.00213 0 0 0 -8.36158e-06 -2.28053e-05 -0.00023544 -1.41377 -3.85589 -39.8079 0 0 0 0.05 
11037 1 -1.58309 0.169597 7.00243 0 0 0 73.5473 186.56 -120.512 -9.82971e+06 -6.38847e+08 -2.30745e+07 -5801.46 3784.81 3670.36 0.05 
5472 1 -1.06037 0.185039 7.00206 0 0 0 -0.480115 0.43801 -0.479813 0 -3.78615 -39.8079 -36.5086 0.40685 1.12942 0.05 
8636 1 -0.44946 0.159835 7.00617 0 0 0 -3.10701 -226.445 -2.55996 -7.40564e+06 -2.1233e+08 -6.18954e+06 2267.29 -2.87749 3769.66 0.05 
13760 1 -3.58691 0.254719 7.00092 0 0 0 1424.95 -135.745 -3.01184 8.13007e+07 -1.56617e+08 6.60483e+06 4508.44 1979.59 213.119 0.05 
10467 1 -3.39086 0.225084 7.00623 0 0 0 0.0543223 -6.08291 0.0385693 -1.95839e+06 -9.43697e+07 572104 64.8583 -3.19074 -260.436 0.05 
3741 1 -1.25446 0.225567 7.0102 0 0 0 0.444528 -331.801 -0.221696 -0.0772229 -8.29718 -39.8079 -7.20369 -1.50365 1997.48 0.05 
6836 1 -0.737038 0.275097 7.00358 0 0 0 3.43771 -105.749 -1.3241 7.55874e+06 7.74513e+08 -2.45866e+06 951.778 -7.01337 3309.27 0.05 
5181 1 -3.31299 0.346556 7.00142 0 0 0 339.888 -297.6 -1.23156 3.18095e+06 -1.33562e+08 1.22935e+06 3716.32 5788.45 -7267.08 0.05 
5457 1 -2.8309 0.322906 7.00506 0 0 0 219.112 0.624157 -65.9053 -1.41438 -45.8835 -39.8079 -2818.02 6535.62 -4939.71 0.05 
9264 1 -2.58845 0.318893 7.01012 0 0 0 195.309 -97.3732 -1.00107 -1.37963 -42.827 -39.8079 2085.51 5294.97 -196.299 0.05 
7879 1 -2.47441 0.352429 7.0101 0 0 0 383.677 63.2495 -1.19796 -1.02792 -76.314 -39.8079 2402.55 5587.35 -4912.58 0.05 
13743 1 -2.13936 0.356302 7.00111 0 0 0 214.145 2.25418 -1.94638 -0.435576 -81.6123 -39.8079 48.7487 276.989 -6015.55 0.05 
12717 1 -1.9658 0.366746 7.00125 0 0 0 204.497 -116.508 0.775237 4.25129e+08 2.4351e+07 -8.54303e+06 2698.27 243.781 -1062.92 0.05 
5648 1 -1.35464 0.329525 7.00357 0 0 0 -0.735058 25.0722 -4.22827 1.04464e+06 -1.55068e+08 6.84981e+06 2272.09 -45.9809 -8277.91 0.05 
13166 1 -1.91491 0.418292 7.00304 0 0 0 71045.9 274.705 -0.691955 -1.14563e+09 -1.72479e+07 1.4153e+07 -950.887 -59714.5 -27446.4 0.05 
11062 1 -0.771389 0.40263 7.00205 0 0 0 0.22249 -290.814 -0.619569 0 -184.546 -39.8079 2854.09 -2.63378 3931.26 0.05 
12140 1 -0.470411 0.380432 7.00346 0 0 0 -0.143833 -443.281 -0.391821 0 -124.395 -39.8079 5182.57 -4.78839 457.63 0.05 
4450 1 -3.097 0.435001 7.00508 0 0 0 318.549 -117.866 -0.319856 922706 466136 -49102.8 -1713.23 -145.502 -554.362 0.05 
13401 1 -1.49074 0.446039 7.00658 0 0 0 -1.58544 -223.92 -142.493 -1.43785e+06 -1.28221e+08 -4.19129e+06 8204.65 447.279 -1146.38 0.05 
13997 1 -1.31737 0.436514 7.0015 0 0 0 0.291073 -246.316 -0.19782 -0.0855026 -342.749 -39.8079 4166.26 15.5116 -8390.29 0.05 
12657 1 -1.2116 0.457907 7.00115 0 0 0 0.149443 -231.993 -0.112349 0 -513.471 -39.8079 996.856 -2.47231 6286.94 0.05 
13330 1 -0.0551577 0.427987 7.00397 0 0 0 0.727938 -322.146 -0.203261 0 -292.643 -39.8079 -283.101 -2.77456 2996.53 0.05 
12618 1 -3.58308 0.48413 7.00062 0 0 0 1202.43 -183.309 -1.95892 6.61746e+07 1.14564e+06 -676373 6124.48 634.671 1857.93 0.05 
2817 1 -2.63549 0.482737 7.00438 0 0 0 185.563 -233.513 -1.241 -1.53859 -833.807 -39.8079 5470.18 -160.668 9756.99 0.05 
10857 1 -2.38519 0.480018 7.0086 0 0 0 208.259 69.1926 -8.50748 -0.81113 -789.98 -39.8079 775.796 -375.938 4610.69 0.05 
1235 1 -2.11835 0.524756 7.00692 0 0 0 2.27583 -68.9788 -1.60489 -0.414293 -1983.54 -39.8079 1553.09 8.07376 -2538.48 0.05 
13078 1 -1.40171 0.509397 7.00274 0 0 0 -1.15975 36.6436 -263.33 -2.76843e+06 -6.06487e+07 1.40844e+06 561.731 4516.12 2459.43 0.05 
12409 1 -0.163606 0.481493 7.00725 0 0 0 0.00492049 -89.4903 -0.0196326 0 -813.444 -39.8079 -239.633 0.847826 -3950.1 0.05 
10883 1 -3.17127 0.532659 7.00858 0 0 0 1.53753 -149.432 -3.80904 898974 -1.19424e+08 -3.70807e+06 963.274 46.3968 -1426.61 0.05 
3048 1 -3.04698 0.570282 7.00356 0 0 0 2.36112 -282.398 -1.21087 -527134 -4.55358e+08 1.09662e+07 2573.17 50.9745 -82.1437 0.05 
3352 1 -1.51551 0.552868 7.00713 0 0 0 -1.73639 -238.832 0.315504 -0.119953 -3682.32 -39.8079 4449.81 -41.4124 -4446.61 0.05 
13715 1 -1.90687 0.599711 7.00422 0 0 0 -3.25317 -85.4821 -73.4938 -279119 420659 231516 3301.31 -2190.58 -3641.75 0.05 
13544 1 -1.42288 0.60869 7.00708 0 0 0 0.113371 -40.1098 -76.1386 -0.102036 -14127.7 -39.8079 7605.27 2167.8 6315.21 0.05 
13720 1 -3.0351 0.676912 7.00918 0 0 0 319.89 -342.146 -0.632569 22.9293 -96546.6 -39.8079 2873.36 6100.38 -4091 0.05 
10007 1 -2.65401 0.638699 7.00418 0 0 0 419.229 -315.984 -2.42924 -1.59934 -31482.7 -39.8079 6108.15 5255.52 -8261.48 0.05 
11300 1 -2.10344 0.640961 7.00817 0 0 0 171.903 -136.94 -1.69032 -0.399952 -33530.8 -39.8079 2839.51 4360.19 -8703.84 0.05 
8166 1 -1.99916 0.638501 7.0005 0 0 0 135.428 -218.269 -0.48457 -0.314817 -31310.2 -39.8079 5032.25 4001.02 310.636 0.05 
13670 1 -1.26 0.666331 7.00023 0 0 0 0.224886 -333.257 -0.406535 -0.0779097 -69907.1 -39.8079 1502.69 -0.408066 1134.51 0.05 
5082 1 -0.782969 0.648924 7.00553 0 0 0 -0.0708252 -313.779 -0.530717 0 -41989 -39.8079 2508.34 0.396106 2485.1 0.05 
12413 1 -0.277158 0.637132 7.00314 0 0 0 -2.15657 -48.177 -169.115 2.5249e+07 -4.65383e+07 -7.70254e+08 -1798.12 3844.37 558.207 0.05 
7680 1 -0.230753 0.66011 6.9752 0 0 0 2.50578 7.04882 -117960 -1.37696e+07 -5.3165e+07 2.04179e+09 -7319.2 -9328.76 -6605.1 0.05 
1098 1 -0.0776919 0.649049 7.00135 0 0 0 -0.280266 -342.401 -0.068258 0 -42139.6 -39.8079 97.9772 0.0352206 -447.284 0.05 
11065 1 -0.676985 0.687264 7.00172 0 0 0 0.0245037 -1.15304 -10.8191 1.7631e+06 -1.13196e+07 -5.63349e+08 -131.291 1.04992 -0.36314 0.05 
13682 1 -3.49857 0.778634 6.99924 0 0 0 218.302 -144.554 -365.851 7.65461e+06 -3.58257e+07 -2.73694e+06 -1529.78 8158.45 -2077.52 0.05 
13918 1 -3.39628 0.768115 7.00268 0 0 0 334.575 -124.2 -96.8997 -70685.8 -1.23633e+07 -887506 4664.17 5027.38 -7710.79 0.05 
8765 1 -2.64683 0.742119 7.00021 0 0 0 458.574 -290.553 0.209118 -1.57607 -921854 -39.8079 6231.04 8990.58 8896.36 0.05 
5525 1 -1.7183 0.759232 7.00304 0 0 0 220.595 -80.9377 -325.618 3.63313e+08 -3.22036e+07 965576 1264.29 9680.2 -1076.62 0.05 
13280 1 -1.58271 0.752029 7.00241 0 0 0 149.717 -28.3819 -1.12779 619609 -1.29974e+07 -1.11824e+06 244.568 4712.78 -3143.23 0.05 
1151 1 -1.13884 0.74088 7.0064 0 0 0 -0.143702 -32.9265 -200.127 0 -878698 -39.8079 6297.96 1939.14 -1328.72 0.05 
12807 1 -0.281141 0.747974 7.00113 0 0 0 1.71923 -252.947 -5.03958 -1.11234e+06 -6.05849e+07 -1.34713e+06 1531.56 -15.1321 1796.37 0.05 
7302 1 -3.51151 0.809799 7.00709 0 0 0 402.321 -3631.85 -299.529 6.74792e+06 4.14609e+07 -79024.4 2215.67 4791.07 59.1608 0.05 
12715 1 -3.09275 0.794239 7.00521 0 0 0 531.736 -592.82 -2.23551 -547083 -1.07944e+07 298187 4879.54 7253.41 2402.45 0.05 
12133 1 -2.35352 0.812586 7.0089 0 0 0 160.069 -3469.21 1.64084 27157.6 2.23251e+06 1.09934e+06 -2294.25 4404.05 379.999 0.05 
12721 1 -0.945827 0.824988 7.00795 0 0 0 -0.111387 -2705.49 -196.43 -453954 -3.14846e+07 1.61314e+06 5021.3 6450.15 -622.048 0.05 
12971 1 -0.488416 0.822182 7.00781 0 0 0 0.503706 -833.97 -376.298 -119306 -3.67203e+07 -553537 5308.22 -1726.82 -645.789 0.05 
8282 1 -0.132561 0.801334 7.00935 0 0 0 0.0259048 -505.825 -0.159517 0 -1.25282e+07 -39.8079 5218.66 8.24512 -5141.88 0.05 
5196 1 -3.04839 -0.90221 7.0274 0 0 0 12.8105 77695.6 1.8225 1.41538e+07 1.46116e+10 8.16462e+06 -14490 22.9121 -4891.27 0.05 
13501 1 -2.71674 -0.840329 7.01576 0 0 0 153.733 158627 -1.07963 -8.05254e+06 -1.3659e+09 -2.06482e+07 9049.66 4234.35 664.648 0.05 
9159 1 -1.67365 -0.882834 7.03895 0 0 0 290.094 -148817 1.44038 -4.01249e+07 3.42814e+09 427906 -10288.2 6594.89 5546.39 0.05 
3315 1 -3.52164 -0.793814 7.04712 0 0 0 331.939 4487.95 4.08186 6.91007e+07 -6.51928e+07 560697 -1063.27 -54.1935 182.883 0.05 
9812 1 -3.46511 -0.795492 7.04743 0 0 0 7866.92 4317.85 6.30094 -3.05511e+08 -3.14103e+08 3.21851e+06 -1128.5 -897.787 7357.69 0.05 
196 1 -3.09803 -0.8338 7.01095 0 0 0 -0.585234 1657.28 -0.509642 -1.41537e+07 4.67757e+08 -8.1647e+06 -3474.1 8.16805 -3517.61 0.05 
5328 1 -2.50449 -0.812787 7.04165 0 0 0 24.3867 514.395 -132.569 -1.11306 2.26871e+07 -39.8079 -6425.42 5100.7 6678.67 0.05 
2998 1 -2.28317 -0.816208 7.03455 0 0 0 4.60337 3307.56 -219.387 3.50178e+06 -8.9908e+06 -782779 -6517.85 -884.697 895.228 0.05 
8924 1 -2.1772 -0.830709 7.04028 0 0 0 0.845319 1006.6 0.06997 463169 6.06451e+07 229326 99.7271 -6.65948 5933.42 0.05 
3847 1 -1.89517 -0.801418 7.02185 0 0 0 0.569181 521.611 -1.17666 -1.01528e+07 -2.28583e+08 3.13498e+06 -4284.8 -8.12844 3298.1 0.05 
11919 1 -1.71616 -0.833226 7.03998 0 0 0 142.481 696.045 -0.674721 3.98009e+07 -8.97167e+08 -1.32812e+06 4184.93 4608.71 2146.9 0.05 
7511 1 -1.59545 -0.820001 7.05581 0 0 0 8.32488 623.508 -0.213567 -0.138661 3.36088e+07 -39.8079 -89.2471 194.385 5251.33 0.05 
7214 1 -1.37435 -0.823652 7.04019 0 0 0 52.8846 754.596 0.11844 -0.0939782 4.1253e+07 -39.8079 1205.58 1709.53 -4107.52 0.05 
2483 1 -1.23788 -0.799211 7.02338 0 0 0 -1.08661 120.889 -1.97329 5.68478e+06 2.79935e+08 -5.40444e+06 -2895.04 0.534499 5131.94 0.05 
4837 1 -3.57982 -0.777664 7.04037 0 0 0 2148.35 213.327 7.56508 3.33168e+07 3.1624e+07 3.16969e+06 -2857.69 7236.49 4348.35 0.05 
13799 1 -3.51108 -0.78915 7.01339 0 0 0 237.958 279.011 -19.2386 6.52854e+07 6.35137e+07 -2.74203e+06 -3717.69 3825.22 1186.23 0.05 
3503 1 -3.40114 -0.777823 7.03288 0 0 0 47.9751 5318.08 5.13381 5.4831e+07 -8.301e+07 -526045 -137.457 307.389 176.434 0.05 
10435 1 -3.40129 -0.78155 7.02072 0 0 0 125.502 227.591 -7.88227 4.87182e+07 6.88049e+07 -4.34657e+06 -1227.41 4002.12 -2198.78 0.05 
1442 1 -3.17498 -0.75755 7.02101 0 0 0 135.87 298.706 -2.19167 681377 3.67299e+06 -293218 -623.926 5244.42 -6532.78 0.05 
9943 1 -2.93169 -0.769108 7.01487 0 0 0 146.821 482.42 -558.295 -3.14788e+06 1.39172e+07 -1.39804e+06 364.3 12895.6 -1328.93 0.05 
3695 1 -2.81521 -0.783581 7.05261 0 0 0 228.121 314.177 -230.749 -631584 1.65454e+07 168653 316.357 -5397.69 -9555 0.05 
2986 1 -2.33887 -0.77398 7.02348 0 0 0 113.106 71.459 -280.137 -3.08219e+06 2.91923e+07 462396 -1931.65 8983.82 -870.578 0.05 
10357 1 -2.11927 -0.752312 7.01963 0 0 0 178.866 343.469 -0.188574 -463170 2.79655e+06 -229406 687.353 4855.48 -5141.26 0.05 
1959 1 -1.47905 -0.777145 7.02085 0 0 0 91.1516 5443.68 -327.196 -1.06785e+06 -3.03344e+07 836433 -6123.59 2624.47 -101.786 0.05 
5135 1 -1.13201 -0.747788 7.0594 0 0 0 10.7599 118.119 -2.73854 1.05786e+06 4.14639e+07 -2.07967e+06 -395.316 -189.553 -229.159 0.05 
7950 1 -0.983719 -0.777781 7.02039 0 0 0 -1.19101 339.462 -1.88567 -61511.1 4.12745e+06 -38040.4 -1436.88 32.1014 -3836.66 0.05 
1945 1 -0.921277 -0.776813 7.05848 0 0 0 -3.0433 5368.72 5.02567 -1.27909e+06 -3.24966e+07 1.14115e+06 -2881.31 29.4597 643.063 0.05 
8455 1 -0.880162 -0.759575 7.02994 0 0 0 4.28938 107.857 -3.20767 1.3406e+06 3.82246e+07 -1.10323e+06 -1331.9 -2.86125 -2036.85 0.05 
14035 1 -0.502833 -0.767437 7.05947 0 0 0 2.37626 309.513 -280.785 334427 5.14589e+06 -144581 7884.02 2636.58 -3565.94 0.05 
3099 1 -0.40294 -0.761734 7.03116 0 0 0 0.0679526 389.804 -92.7849 -569129 4.91748e+06 -1.45604e+06 -1776.44 -3569.3 2293.79 0.05 
7914 1 -0.276584 -0.741814 7.01916 0 0 0 130.627 571.502 -0.561278 0 911045 -39.8079 -3597.94 -530.151 -2387.15 0.05 
9896 1 -3.06798 -0.703453 7.01043 0 0 0 312.179 -107.238 -0.133975 41.2452 227772 -39.8079 -3530.55 2035.51 -6069.64 0.05 
3621 1 -2.66416 -0.726857 7.01338 0 0 0 278.919 188.619 -0.331426 -1.63137 518595 -39.8079 -4348.51 4276.74 -1180.32 0.05 
8987 1 -2.21954 -0.731102 7.04775 0 0 0 388.135 33.9673 -148.685 -0.529779 606588 -39.8079 2698.07 -1664.29 -2835.43 0.05 
8822 1 -1.96149 -0.705286 7.04468 0 0 0 521.027 395.099 -0.278014 -0.289609 242358 -39.8079 -313.808 4662.34 -5803.63 0.05 
10884 1 -1.81842 -0.742712 7.01965 0 0 0 0.614634 -67637.9 -72.0811 1.00145e+07 1.4654e+09 1.46875e+07 -24454.5 1503 -1476.76 0.05 
12201 1 -1.59105 -0.691827 7.01804 0 0 0 296.415 266.404 -0.231591 2.80253e+08 -969820 -8.5555e+06 -4657.44 -801.791 -998.869 0.05 
5056 1 -1.4897 -0.712302 7.04627 0 0 0 205.778 219.328 -101.645 1.06785e+06 3.46132e+07 -836513 4225.49 -3442.06 -11091.5 0.05 