ITEM: TIMESTEP
220000
ITEM: NUMBER OF ATOMS
14052
ITEM: BOX BOUNDS ff pp ff
-3.75 3.75
-1 1
0 10
ITEM: ATOMS id type x y z ix iy iz vx vy vz fx fy fz omegax omegay omegaz radius 
13821 1 -1.59505 -0.511444 6.09151 0 0 0 0.275184 105.575 -171857 -0.138558 1496.85 -39.8079 4511.3 3783.37 -2558.63 0.05 
9412 1 -2.15415 -0.351751 6.08286 0 0 0 1.89465 14.6511 -171840 -0.451343 75.4238 -39.8079 -9278.38 13846.1 5701.27 0.05 
10206 1 -3.22639 0.654288 6.10963 0 0 0 223.624 -338.313 -170107 734.752 -48998.1 -39.8079 5136.14 -10974 -8981.36 0.05 
12795 1 -2.98943 -0.31827 6.14884 0 0 0 496.068 -76.1835 -168732 9.56022 42.3713 -39.8079 -10403.9 3184.62 3882.04 0.05 
13215 1 -0.227485 -0.107845 6.13873 0 0 0 -0.415757 615.338 -169069 0 0.58172 -39.8079 56.5582 22216.6 -6775.57 0.05 
7183 1 -0.750522 -0.36343 6.18972 0 0 0 -0.775491 310.248 -166448 0 92.3732 -39.8079 -12783.2 -9045.73 -4366.71 0.05 
4371 1 -1.71274 0.399082 6.17822 0 0 0 0.978137 -152.086 -167037 -0.173179 -173.183 -39.8079 17513.9 -2599.57 17.1685 0.05 
11397 1 -0.430418 0.753992 6.18434 0 0 0 0.381765 56.9112 -166689 0 -1.47723e+06 -39.8079 9019.46 16450.5 -5556.43 0.05 
13017 1 -1.4873 -0.798306 6.25952 0 0 0 0.909249 558.96 -163153 -0.114109 1.07688e+07 -39.8079 -24189.3 -7438.98 3021.17 0.05 
12202 1 -1.6999 -0.493803 6.23372 0 0 0 179.822 82.499 -164076 -0.168917 1041.28 -39.8079 9591.61 11592.2 3632.57 0.05 
10576 1 -3.27178 0.236579 6.24197 0 0 0 288.577 -171.664 -164748 1861.07 -10.1534 -39.8079 -34639.3 13625.1 1203.32 0.05 
8448 1 -0.48348 -0.801743 6.32615 0 0 0 0.508839 321.372 -159922 0 1.2789e+07 -39.8079 -5624.8 -12451.1 599.922 0.05 
11049 1 -2.64986 -0.218442 6.37243 0 0 0 133.741 -5.57851 -157302 -1.58593 7.26569 -39.8079 18.8217 -15907.8 3665.63 0.05 
11202 1 -0.850902 0.249159 6.34566 0 0 0 123.447 238.648 -159224 0 -12.7352 -39.8079 -9912.06 27218.7 2176.75 0.05 
13635 1 -1.11898 0.67784 6.33555 0 0 0 1.12983 -248.695 -159669 0 -99369.1 -39.8079 23219.4 1106.72 3265.97 0.05 
11924 1 -1.4842 -0.146012 6.41877 0 0 0 0.0425373 -132709 -156145 -0.113487 1.60821 -39.8079 -713.479 -4098.91 8296.87 0.05 
9405 1 -1.49505 0.136581 6.38229 0 0 0 152.075 67.4589 -157450 -0.115677 -1.27766 -39.8079 -6349.9 -4238.04 -3403.14 0.05 
12319 1 -0.0529319 0.160363 6.39533 0 0 0 -0.207636 85.6351 -158386 0 -2.23829 -39.8079 -4133.99 98548.8 -3973.59 0.05 
13254 1 -1.96442 0.529039 6.41499 0 0 0 -0.150736 27.6466 -155765 -0.291484 -2174.85 -39.8079 -7367.64 -23625.4 3565.41 0.05 
12761 1 -0.541568 0.532956 6.40793 0 0 0 0.273628 -327.086 -156298 0 -2367.44 -39.8079 16792.2 -12762.6 -880.602 0.05 
12566 1 -1.89924 0.275465 6.47682 0 0 0 77.5525 -317.074 -153211 -0.253151 -20.2432 -39.8079 -16700 2013.15 5382.68 0.05 
11242 1 -1.16453 0.580271 6.44298 0 0 0 -0.0422323 -200.7 -155175 0 -6975.01 -39.8079 11388 -13157.8 4496.39 0.05 
12900 1 -3.4906 0.805448 6.46598 0 0 0 308.799 -494.447 -151839 869393 -1.5444e+07 -39.8079 -23920.6 40304.7 -3110.64 0.05 
8681 1 -0.510977 0.82779 6.46264 0 0 0 -0.925695 -666.769 -153783 0 -5.23088e+07 -39.8079 -50699.1 11980.1 1235.89 0.05 
12455 1 -2.35564 -0.309584 6.57258 0 0 0 1.67213 168.304 -148866 -0.750451 36.4966 -39.8079 7925.15 12355.5 -4376.61 0.05 
4032 1 -1.64335 0.241856 6.57048 0 0 0 0.993796 310.862 -148998 -0.15162 -11.1709 -39.8079 9126.22 20299.1 3259.07 0.05 
7677 1 -1.36622 0.537849 6.57789 0 0 0 -0.253296 -136.755 -149126 -0.0927058 -2634.63 -39.8079 -7104.88 7447.28 662.835 0.05 
8255 1 -3.29452 -0.429179 6.61182 0 0 0 175.969 68.4647 -146740 3052.93 299.151 -39.8079 -29492.7 -11449 4606.84 0.05 
10609 1 -1.77686 -0.319978 6.59454 0 0 0 1.51252 -165.219 -147349 -0.196579 43.6327 -39.8079 27672.1 -1753.56 3676.46 0.05 
11415 1 -0.879149 0.830603 6.58597 0 0 0 238.893 -808.447 -148344 0 -6.16748e+07 -39.8079 -96357.5 -10605.3 1405.99 0.05 
13781 1 -2.525 -0.000994377 6.67392 0 0 0 31.3856 1.24119 -144580 -1.17453 4.0116e-07 -39.8079 5489.15 -18032.1 -657.816 0.05 
6492 1 -1.69873 0.759576 6.67803 0 0 0 110.525 -194.334 -142339 -0.168534 -1.85865e+06 -39.8079 16696.9 -12891.1 2389.16 0.05 
9165 1 -2.43721 -0.769811 6.72429 0 0 0 69.1415 52.6633 -141097 -0.931121 2.87196e+06 -39.8079 -44682.4 13410.2 -3042.24 0.05 
12363 1 -3.15371 -0.416531 6.71214 0 0 0 355.595 239.596 -142172 187.429 237.248 -39.8079 8225.56 -3555.31 5490.18 0.05 
6487 1 -3.36096 -0.326918 6.72706 0 0 0 396.792 223.839 -141599 14978.2 49.1582 -39.8079 12836.7 -22377.9 -7704.65 0.05 
7639 1 -0.954657 -0.194154 6.71236 0 0 0 -1.0914 165.7 -141912 0 4.54884 -39.8079 15457.6 21674 1082.4 0.05 
11852 1 -2.18675 -0.540327 6.77605 0 0 0 209.781 264.778 -138928 -0.488579 2782.3 -39.8079 11897.3 19456.2 984.161 0.05 
10766 1 -2.77824 0.0285636 6.77637 0 0 0 274.323 -645.343 -139270 -1.76617 -0.00959359 -39.8079 -41199.7 -4787.51 941.861 0.05 
12207 1 -0.638593 0.53416 6.79013 0 0 0 -0.261889 -17318 -139063 0 -2430.36 -39.8079 -20262.1 -18969.9 601.985 0.05 
13278 1 -2.04507 0.820924 6.74771 0 0 0 147.39 -1111.46 -140221 -0.349274 -3.53807e+07 -39.8079 -69159.6 7820.31 8625.9 0.05 
11713 1 -2.15477 -0.244323 6.80979 0 0 0 187.819 -811.193 -137639 -0.452013 11.6783 -39.8079 12852.1 -8865.71 6541.5 0.05 
3777 1 -2.7438 -0.134619 6.79564 0 0 0 477.102 -46658.1 -137498 -1.79866 1.21613 -39.8079 2511.96 -4716.12 -2155.11 0.05 
9454 1 -2.46736 -0.122641 6.81429 0 0 0 23.8613 148.175 -137789 -1.00885 0.888506 -39.8079 8704.99 5585.32 2765.96 0.05 
10622 1 -2.53268 -0.515548 6.8948 0 0 0 149.526 3.08911 -132670 -1.19822 1631.37 -39.8079 -19546.9 30099.5 -1973.68 0.05 
3037 1 -0.656445 0.0307223 6.86246 0 0 0 51.9572 -3.79083 -135437 0 -0.011954 -39.8079 -3964.81 -4136.05 3439.81 0.05 
9289 1 -0.14286 0.319814 6.86617 0 0 0 1.1644 -131.286 -134108 0 -43.5101 -39.8079 -3624.17 -6460.88 4435.75 0.05 
9291 1 -0.582921 -0.163534 6.92252 0 0 0 0.43672 -55.6787 -132302 1.82371e+07 -1.21455e+07 7.10627e+08 9983.19 -21145.6 -684.284 0.05 
1680 1 -1.26735 -0.850059 7.00983 0 0 0 1.25203 -78891.5 -1.15852 1.83655e+07 7.40948e+08 1.73935e+07 -54721.6 59.2689 -403.221 0.05 
14013 1 -3.30285 -0.839088 7.00185 0 0 0 0.0326041 1387.56 -0.0987683 3680.43 1.03108e+08 -39.8079 -957.997 4.39134 3796.95 0.05 
12327 1 -1.10086 -0.823202 7.00053 0 0 0 0.0607127 595.477 -1.05006 -105805 5.96724e+07 898464 -5109.93 -15.4335 4300.4 0.05 
6695 1 -0.781351 -0.83037 7.00087 0 0 0 0.0781568 879.828 -0.798324 0 6.08331e+07 -39.8079 -1135.51 -2.30872 278.721 0.05 
13221 1 -0.460279 -0.833232 7.001 0 0 0 0.522062 863.355 -273.725 234568 6.71601e+07 1.59818e+06 -9829.86 -3154.93 -496.93 0.05 
13855 1 -1.76255 -0.756966 7.00277 0 0 0 27.8951 275.954 -0.0503199 -107990 3.68946e+06 615374 -1571.87 67.0773 -5482.7 0.05 
12243 1 -0.704597 -0.752357 7.00116 0 0 0 73.0282 300.161 0.0980524 0 1.3825e+06 -39.8079 -5580.98 336.284 -7901.36 0.05 
11028 1 -0.585249 -0.767638 7.00049 0 0 0 -0.984516 235.446 -0.455902 0 2.61435e+06 -39.8079 -3918.86 -7.42684 5029.43 0.05 
5466 1 -0.115561 -0.785127 7.00644 0 0 0 -0.314561 362.819 -1.02514 0 5.71823e+06 -39.8079 -6037.33 -0.618337 -1906.12 0.05 
13426 1 -3.28685 -0.735442 7.00829 0 0 0 232.604 167.199 1.12889 2577.13 713829 -39.8079 -1244.43 3585.95 138.524 0.05 
11386 1 -2.48344 -0.719085 7.00785 0 0 0 283.658 259.516 -189.377 -1.05283 391648 -39.8079 1642.02 7663.69 -797.809 0.05 
11448 1 -3.35475 -0.659184 7.00548 0 0 0 340.207 0.412983 -0.21997 12772.7 56529.3 -39.8079 0.00307506 769.836 372.976 0.05 
9043 1 -2.27986 -0.662278 7.00118 0 0 0 336.629 0.4648 -0.206786 -0.616775 61941.2 -39.8079 -0.656762 1489.2 -132.249 0.05 
9387 1 -1.88819 -0.635639 7.00195 0 0 0 369.918 120.245 -3.05211 -2.13389e+07 -2.41914e+08 991381 -3601.2 2285.65 -1064.08 0.05 
7434 1 -1.82367 -0.675858 7.00844 0 0 0 15.1974 10800.3 -4.75716 2.28033e+06 -6.4772e+08 -4.63218e+06 3348.22 563.812 -1067.89 0.05 
13214 1 -1.70494 -0.642065 7.00819 0 0 0 339.607 226.91 -1.23631 -2.57716e+07 -9.22687e+08 -2.59922e+07 -3379.78 606.191 5580.2 0.05 
13698 1 -0.548275 -0.636262 7.00081 0 0 0 363.626 83.0413 -4.00647 -654152 7.71607e+07 -4.167e+06 -1384 2476.3 1798.43 0.05 
12790 1 -0.25433 -0.661979 7.0103 0 0 0 151057 -1.9245 -4.65701 -2.49325e+09 -2.08919e+07 1.06037e+07 -1311.83 -106259 -2600.93 0.05 
3890 1 -3.45881 -0.604567 7.00435 0 0 0 444.059 0.0956124 -0.0222186 273355 12714.5 -39.8079 1.2815 3947.3 792.38 0.05 
8417 1 -2.52972 -0.590617 6.96461 0 0 0 9.18969 -66463.1 -129883 2.36148e+07 2.49595e+08 4.64914e+08 7750.89 -6581.64 1148.76 0.05 
14036 1 -2.37585 -0.629038 7.00112 0 0 0 394.23 174.552 -74.8012 5.93442e+06 1.06131e+07 -3.78785e+08 -5405.82 5045.09 -5039.42 0.05 
13329 1 -1.33269 -0.596185 7.00407 0 0 0 431.973 46.1237 0.132126 -0.0876846 10295.3 -39.8079 -1454.34 4203.75 -11198.5 0.05 
5912 1 -0.359913 -0.602059 7.00152 0 0 0 425.488 260.518 -1.27931 -934911 6.04258e+07 -2.5988e+06 -3104.49 4454.74 6217.63 0.05 
11316 1 -2.81416 -0.558876 7.00169 0 0 0 292.519 7.05442 -1.19401 1.81934e+06 7.64004e+07 -2.84036e+06 -387.77 4753.25 -2968.76 0.05 
11479 1 -2.46099 -0.537037 7.00562 0 0 0 299.547 221.99 -306.073 -2.36148e+07 -2.49583e+08 -4.64914e+08 -3275.78 -6274.8 6448.12 0.05 
1298 1 -2.32061 -0.556588 6.9641 0 0 0 79.3696 274.98 -130644 -5.93442e+06 -1.05849e+07 3.78785e+08 5919.9 8769.09 -5718.43 0.05 
12594 1 -0.816839 -0.55029 7.0068 0 0 0 303.89 279.529 -0.794501 0 3474.09 -39.8079 -177.296 4239.65 4811.8 0.05 
10556 1 -0.71168 -0.542345 7.00977 0 0 0 309.677 352.606 -0.56181 0 2909.25 -39.8079 -5179.17 3843.68 -3440.37 0.05 
9307 1 -0.262306 -0.537636 7.00187 0 0 0 287.767 376.326 -0.151889 427035 1.11802e+08 1.40046e+06 -3278.12 4739.26 -813.575 0.05 
6295 1 -3.22398 -0.473899 7.00889 0 0 0 130.602 19.1037 -204.25 -3.23591e+06 9.14992e+07 281399 -5169.7 438.304 5001.66 0.05 
12205 1 -3.12227 -0.503082 7.00437 0 0 0 228.359 -112.363 -76.6841 769068 18792.4 -578469 -2837.89 2292.29 803.846 0.05 
7966 1 -2.02434 -0.521643 7.00055 0 0 0 271.21 261.381 -1.14487 -0.333178 1855.99 -39.8079 -5905.43 4623.78 3846.23 0.05 
10984 1 -1.50508 -0.507153 7.00396 0 0 0 247.748 161.634 -93.7678 381479 164058 -1.19451e+06 -3779.61 -317.99 491.957 0.05 
13525 1 -1.37384 -0.493387 7.00957 0 0 0 221.694 326.61 -0.453329 -1.33695e+06 -471437 409577 -1853.55 2846.58 4033.99 0.05 
5517 1 -3.50512 -0.433756 6.99999 0 0 0 7113.77 -6.18465 -3.01504 -4.58216e+07 1.23968e+06 521577 -2.69129 -2204.48 3742.78 0.05 
13644 1 -2.15877 -0.46965 7.00176 0 0 0 110.369 295.127 -157.608 -0.456405 644.333 -39.8079 3610.94 -316.962 8389.43 0.05 
7418 1 -1.68384 -0.450927 7.00052 0 0 0 0.514568 2.61485 -265.136 -0.163766 449.46 -39.8079 5489.76 -2169.14 -97.8091 0.05 
3483 1 -0.640446 -0.471829 7.0094 0 0 0 131.827 6.63945 0.0463664 -723336 8.08809e+07 3.3773e+06 554.842 1764.65 2171.8 0.05 
6072 1 -3.06718 -0.41514 7.00646 0 0 0 0.647271 -74.0541 -100.477 40.6632 231.319 -39.8079 -2785.02 -4322.01 701.958 0.05 
11339 1 -2.07382 -0.375058 7.00609 0 0 0 2.34727 428.744 -117.104 -0.373198 113.184 -39.8079 -6443.07 -4632.08 -1266.77 0.05 
12492 1 -1.42302 -0.405748 7.00997 0 0 0 -1.08558 284.971 -12.4011 -2.33219e+07 -6.01028e+06 -6.07793e+08 -1664.06 272.579 4928.08 0.05 
2539 1 -1.1615 -0.407865 7.0089 0 0 0 0 0.00109934 -0.00021582 0 202.774 -39.8079 0 0 0 0.05 
6261 1 -0.775942 -0.372539 7.00012 0 0 0 0.206676 309.708 -309.467 -914517 -8.44284e+08 -8.87642e+06 -2303.38 3745.17 -408.427 0.05 
11157 1 -0.354932 -0.413563 7.00165 0 0 0 -0.363799 253.588 -0.0297476 0 224.791 -39.8079 -2619.93 -3.18921 5536.32 0.05 
12860 1 -0.240008 -0.41039 7.00328 0 0 0 0.0777527 171.864 0.034072 0 212.234 -39.8079 -1701.5 2.05304 -5876.28 0.05 
3298 1 -2.40145 -0.353067 7.00779 0 0 0 65.2208 251.121 -207.485 -0.846777 77.1612 -39.8079 -7407.33 4969.75 -8391.18 0.05 
13080 1 -1.63049 -0.326959 7.0038 0 0 0 0.306417 111.495 -0.287235 1.23357e+06 -1.4214e+08 -4.13999e+06 -2781.34 0.184661 3780.5 0.05 
11927 1 -1.26368 -0.324889 7.00107 0 0 0 0.226222 -336.624 -0.503222 -0.0783715 47.4741 -39.8079 1481.56 0.0700482 588.26 0.05 
10082 1 -0.0747454 -0.358679 7.00178 0 0 0 -2.23336 -57767.3 -3.01476 1.01987e+07 4.40401e+08 1.18025e+07 -40722.2 22.4951 -26492.4 0.05 
246 1 -1.97823 -0.308659 7.00776 0 0 0 150.296 223.032 0.427641 5.13304e+08 8.04117e+06 -62506.8 -4360.15 781.493 -8040.36 0.05 
13413 1 -0.751375 -0.272318 7.00892 0 0 0 4.38472 111.415 -73.3384 -4.13293e+07 -1.02722e+09 404505 3282.57 36.5311 -1383.85 0.05 
12444 1 -0.778913 -0.296717 7.00817 0 0 0 -2.26669 -138415 -109.274 4.25068e+07 1.87268e+09 8.33836e+06 13978.7 -4013.53 -16827.9 0.05 
6601 1 -3.06921 -0.241964 6.96066 0 0 0 221.974 156.344 -130535 2.47756e+06 1.01322e+06 1.38762e+09 1233.63 7178.35 3381.39 0.05 
13443 1 -2.62649 -0.237113 7.00734 0 0 0 313.471 235.226 -303.185 -1.50836 10.2523 -39.8079 -8922.86 -1780.99 4818.83 0.05 
11055 1 -1.5872 -0.225179 7.00949 0 0 0 0.0299349 245.704 -0.216191 -0.13657 8.23771 -39.8079 -5405.49 -1.27591 3018.14 0.05 
9031 1 -1.07492 -0.25585 7.00496 0 0 0 -0.577738 273.783 -0.297976 -2.03387e+07 -6.94253e+08 -1.12325e+07 -1917.68 0.82901 4415.29 0.05 
10863 1 -3.55325 -0.176185 7.00655 0 0 0 4549.86 -2.41615 -1.60467 -1.47349e+07 -1.41373e+06 -1.22524e+06 29.4447 -272.099 4702.54 0.05 
11894 1 -3.1741 -0.17629 7.00157 0 0 0 96.1467 1.85984 -1.01635 -21913.9 1.73386e+06 -923912 -41.0062 732.381 4060.19 0.05 
4622 1 -1.82237 -0.209529 7.01014 0 0 0 -0.19448 -334.907 -0.538681 -0.215589 6.13741 -39.8079 1599.97 0.0975273 -596.71 0.05 
7242 1 -1.01376 -0.157942 7.00778 0 0 0 4.24317 117.177 -186.609 -3.51794e+07 -9.84086e+08 1.68198e+07 2640.94 5348.05 -1513.89 0.05 
12122 1 -0.561726 -0.185342 7.00171 0 0 0 0.494694 -0.615871 -284.563 -1.82371e+07 1.21455e+07 -7.10627e+08 -2973.96 -2854.57 1.05583 0.05 
13658 1 -0.159217 -0.165845 7.00033 0 0 0 -0.0761403 -113.649 -100.581 0 2.5261 -39.8079 -2639.43 -3401.52 -4764 0.05 
12127 1 -2.82774 -0.110158 7.00667 0 0 0 0.149023 -17.5509 -51.8904 -1.4512 0.623423 -39.8079 -1219.28 2152.68 -731.6 0.05 
6839 1 -2.93678 -0.0588811 7.0006 0 0 0 91.1857 -7.34026 -0.645101 2.6268 0.0865185 -39.8079 -34.7173 3569.02 -2026.01 0.05 
9952 1 -1.27567 -0.0706937 7.0053 0 0 0 83.8854 -335.815 -0.280596 -0.0798975 0.152277 -39.8079 779.265 3131.86 -3371.85 0.05 
13065 1 -0.446808 -0.0701493 7.00084 0 0 0 0 8.05968e-07 -0.00021582 0 0.148661 -39.8079 0 0 0 0.05 
11753 1 -2.68466 -0.0086867 7.00547 0 0 0 154.613 -45.28 -133.714 -320281 371276 465969 3673.85 1681.45 2495.62 0.05 
13038 1 -2.3847 -0.0466834 7.01027 0 0 0 161.013 206.812 -0.605685 260528 -134913 -374618 -2302.91 5521.37 -8072.97 0.05 
9721 1 -2.21371 -0.0452222 7.00071 0 0 0 122.633 106.586 -0.219284 -0.522173 0.038588 -39.8079 -727.851 4821.91 3058.83 0.05 
11177 1 -1.65956 -0.0166536 7.00187 0 0 0 143.595 -18.4997 -0.519772 -99460.7 -203554 -366587 887.375 5538.03 75.4127 0.05 
10773 1 -0.273207 -0.0436473 7.00202 0 0 0 0.335501 276.649 -136.982 0 0.0346421 -39.8079 1679.57 3050.63 -4799.96 0.05 
9438 1 -3.54824 0.0218782 7.00378 0 0 0 4834.75 4.43232 2.20572 -1.52015e+07 175599 -370385 -119.064 2233.48 -1122.78 0.05 
1157 1 -1.0537 0.0220031 7.00782 0 0 0 -0.39844 0.25202 -0.335731 0 -0.00436933 -39.8079 -33.6937 -0.229989 -4.24591 0.05 
2032 1 -0.422475 0.0502767 7.00115 0 0 0 0 -2.89016e-07 -0.00021582 0 -0.053309 -39.8079 0 0 0 0.05 
5587 1 -2.27498 0.0582498 7.00885 0 0 0 49.1471 -0.000492734 -1.38874e-05 -0.609156 -0.0836974 -39.8079 0.0239871 1769.72 -1519.39 0.05 
4228 1 -2.03908 0.0881916 7.00419 0 0 0 120.187 85.6498 -0.141677 -0.344523 -0.304849 -39.8079 -568.919 4563.63 -5773.72 0.05 
5683 1 -1.90271 0.0580473 7.00453 0 0 0 24.3346 -107.805 -0.0587059 413325 105555 -290104 834.823 926.666 -5258.56 0.05 
11421 1 -3.5496 0.155123 7.0034 0 0 0 4729.67 1.81262 1.76885 -3.40049e+07 722860 -759103 -53.2695 2376.96 733.181 0.05 
1592 1 -1.44018 0.117153 7.00901 0 0 0 175.767 236.509 -226.107 -0.105115 -0.763254 -39.8079 -3519.82 91.4354 5863.85 0.05 
3720 1 -0.32229 0.112551 7.00094 0 0 0 -0.974915 263.617 -1.44033 3.17674e+06 3.26756e+08 4.28747e+06 -2741.52 -1.70427 1564.69 0.05 
11518 1 -3.2494 0.186169 7.00399 0 0 0 0.470591 -0.242336 -231.332 1166.47 -3.87436 -39.8079 -5741.44 -2678.64 -8.76268 0.05 
8568 1 -3.02181 0.19027 7.00797 0 0 0 1.26802 -192.696 -0.129792 17.9561 -4.2092 -39.8079 -835.018 12.1587 1442.62 0.05 
11832 1 -2.59856 0.185935 7.00213 0 0 0 -7.66478e-06 -2.09048e-05 -0.00021582 -1.41377 -3.85589 -39.8079 0 0 0 0.05 
11037 1 -1.58324 0.169137 7.00267 0 0 0 74.2255 233.497 -118.877 -0.13558 -2.71306 -39.8079 -6981.03 3785.92 4127.88 0.05 
5472 1 -1.06037 0.185038 7.00206 0 0 0 -0.480115 0.438012 -0.479793 0 -3.78608 -39.8079 -36.5086 0.40685 1.12942 0.05 
8636 1 -0.449457 0.16019 7.00617 0 0 0 -0.133364 -134.451 -0.136853 -3.30763e+06 -1.28528e+08 -2.54994e+06 1216.86 -1.34708 5000.16 0.05 
13760 1 -3.58972 0.254912 7.00093 0 0 0 1380.03 -56.2526 -2.96025 1.01249e+08 -1.63486e+08 -6.88858e+06 1831.12 2090.46 525.402 0.05 
10467 1 -3.39086 0.225085 7.00623 0 0 0 0.181274 -4.45836e-05 -0.00021582 33434.7 -8.22345 -39.8079 0 0 0 0.05 
3741 1 -1.25446 0.226231 7.0102 0 0 0 0.444528 -331.801 -0.221676 -0.077223 -8.39964 -39.8079 -7.20369 -1.50365 1997.48 0.05 
6836 1 -0.73704 0.275472 7.00358 0 0 0 0.329174 -200.019 -0.189034 0 -20.2459 -39.8079 1863.39 -3.21475 6122.28 0.05 
5181 1 -3.31367 0.34707 7.00142 0 0 0 338.231 -211.492 -2.87517 3.15658e+06 -1.97984e+08 5.95515e+06 2644.66 5774.2 -6939.83 0.05 
5457 1 -2.83134 0.322905 7.00513 0 0 0 219.047 0.621232 0.199344 -1.40907 -45.8827 -39.8079 -7.83823 5332.69 -4936.98 0.05 
9264 1 -2.58884 0.31905 7.01012 0 0 0 196.376 -49.9687 -0.755356 -768373 -1.27578e+08 -1.63026e+06 1067.95 5327.25 -1997.5 0.05 
7879 1 -2.47509 0.352303 7.01011 0 0 0 269.177 63.1657 -3.80435 3.04681e+08 121773 -6.92294e+06 2411.85 1674.37 -5196.57 0.05 
13743 1 -2.13979 0.356297 7.00111 0 0 0 213.958 15.6413 -2.23192 8.23131e+06 -5.85012e+08 1.25834e+07 -35.974 276.969 -5961.23 0.05 
12717 1 -1.96599 0.366981 7.00125 0 0 0 0.0669679 -115.136 -0.051985 54496.8 -214494 -45701.3 2673.26 4.162 4016.74 0.05 
5648 1 -1.35464 0.329397 7.00358 0 0 0 -0.844314 102.818 -4.79244 -674838 -1.62896e+08 -5.46061e+06 70.2932 -50.9154 -8490.6 0.05 
13166 1 -2.05752 0.417736 7.00304 0 0 0 71540 276.302 -3.50112 -7.3037e+08 4.4813e+08 3.12606e+07 -972.63 -55886 -26596.3 0.05 
11062 1 -0.771389 0.403212 7.00206 0 0 0 0.22249 -290.814 -0.61955 0 -186.483 -39.8079 2854.09 -2.63378 3931.26 0.05 
12140 1 -0.470411 0.381319 7.00346 0 0 0 -0.143833 -443.281 -0.391801 0 -126.353 -39.8079 5182.57 -4.78839 457.63 0.05 
4450 1 -3.09764 0.435236 7.00508 0 0 0 318.102 -118.092 -0.296828 892582 451513 -44344.6 -1705.78 -161.278 -564.728 0.05 
13401 1 -1.49074 0.446421 7.00686 0 0 0 -0.192895 -135.14 -140.549 -9.89496e+06 -6.05238e+08 1.69881e+06 6422.46 442.399 -1705.13 0.05 
13997 1 -1.31737 0.437006 7.0015 0 0 0 0.291073 -246.316 -0.197801 -0.0855026 -345.911 -39.8079 4166.26 15.5116 -8390.29 0.05 
12657 1 -1.2116 0.458371 7.00115 0 0 0 0.149443 -231.993 -0.112329 0 -518.06 -39.8079 996.856 -2.47231 6286.94 0.05 
13330 1 -0.0551591 0.428631 7.00397 0 0 0 0.727938 -322.146 -0.203241 0 -296.142 -39.8079 -283.101 -2.77456 2996.53 0.05 
12618 1 -3.58545 0.484498 7.00063 0 0 0 1167.1 -183.838 -1.64099 7.74515e+07 996569 -612616 6135.15 653.064 1803.07 0.05 
2817 1 -2.63587 0.483204 7.00439 0 0 0 185.563 -233.512 -1.24098 -1.53982 -841.596 -39.8079 5470.18 -160.668 9756.99 0.05 
10857 1 -2.38561 0.479879 7.00861 0 0 0 208.251 69.2148 -0.0692253 -0.812023 -787.817 -39.8079 1172.22 -514.525 4611.46 0.05 
1235 1 -2.11836 0.525003 7.00692 0 0 0 2.28432 -309.31 -2.80426 1.92427e+07 1.057e+09 -3.46713e+07 3830.72 2.20063 -1354.55 0.05 
13078 1 -1.40171 0.509286 7.00327 0 0 0 -0.0663441 68.1749 -263.871 1.75841e+06 2.27914e+08 -2.33776e+06 -187.482 4515.47 921.588 0.05 
12409 1 -0.163606 0.481672 7.00725 0 0 0 0.00492049 -89.4899 -0.019613 0 -816.342 -39.8079 -239.633 0.847826 -3950.1 0.05 
10883 1 -3.17127 0.532899 7.00859 0 0 0 1.56101 -90.1955 -1.74867 540053 -1.17964e+08 -3.53375e+06 582.259 26.7018 -856.253 0.05 
3048 1 -3.04698 0.570687 7.00356 0 0 0 1.50767 -180.22 -0.252791 28.4115 -5554.33 -39.8079 -1506.58 23.152 -747.033 0.05 
3352 1 -1.51551 0.553316 7.00713 0 0 0 -2.59693 -200.353 -0.845768 2.53699e+06 -1.09012e+08 3.08982e+06 3757.46 -35.3186 -3731.41 0.05 
13715 1 -1.90687 0.599883 7.00437 0 0 0 -3.07488 -85.6351 -73.5675 -596063 181571 27957.7 3301.45 -2185.35 -3652.65 0.05 
13544 1 -1.42288 0.608885 7.00724 0 0 0 -3.76895 -201.876 -75.6116 -1.18912e+07 4.82306e+08 -1.80227e+06 8795.44 2130.32 3503.81 0.05 
13720 1 -3.03574 0.677518 7.00918 0 0 0 320.064 -207.389 -0.811746 6.02072e+06 -3.92021e+08 -1.23352e+07 -2118.75 6104.76 -5770.41 0.05 
10007 1 -2.65485 0.639331 7.00419 0 0 0 419.229 -315.969 -2.42922 -1.60203 -32040.5 -39.8079 6108.15 5255.52 -8261.48 0.05 
11300 1 -2.10379 0.641567 7.00817 0 0 0 171.247 -437.768 -1.05205 -0.400277 -34103.5 -39.8079 5493.62 4361.95 -5156.32 0.05 
8166 1 -1.99943 0.638938 7.0005 0 0 0 135.428 -218.253 -0.48455 -0.315008 -31692.1 -39.8079 5032.25 4001.02 310.636 0.05 
13670 1 -1.26 0.666997 7.00023 0 0 0 0.224886 -333.222 -0.406515 -0.0779097 -71321.9 -39.8079 1502.69 -0.408066 1134.51 0.05 
5082 1 -0.782969 0.649551 7.00554 0 0 0 -0.0708252 -313.758 -0.530697 0 -42749.1 -39.8079 2508.34 0.396106 2485.1 0.05 
12413 1 -0.277157 0.637198 7.00322 0 0 0 0.18175 -18.3954 -0.0364019 1.05395e+06 -5.3451e+07 589698 -124.07 1.92115 348.761 0.05 
1098 1 -0.0776913 0.649734 7.00135 0 0 0 -0.280266 -342.38 -0.0682384 0 -42973 -39.8079 97.9772 0.0352206 -447.284 0.05 
11065 1 -0.676985 0.687265 7.00172 0 0 0 0 -0.725437 -0.00021582 0 -133784 -39.8079 0 0 0 0.05 
13682 1 -3.49901 0.778906 6.99996 0 0 0 214.437 -126.701 -325.849 3.89503e+06 -2.98602e+07 -4.61028e+08 -3136.34 7232.92 -2185.44 0.05 
13918 1 -3.39695 0.768357 7.00286 0 0 0 334.946 -117.181 -36.8375 3.89534e+06 -7.31809e+06 -5.86329e+08 2489.3 6600.82 -7705.45 0.05 
8765 1 -2.64775 0.742699 7.00021 0 0 0 458.574 -290.094 0.209138 -1.57907 -942879 -39.8079 6231.04 8990.58 8896.36 0.05 
5525 1 -1.71865 0.75938 7.00369 0 0 0 141.284 -67.4053 -325.877 4.41218e+08 -2.22917e+07 2.00342e+07 984.217 7377.6 -2365.97 0.05 
13280 1 -1.58285 0.75208 7.00241 0 0 0 1.09905 -21.4841 -0.402405 488764 -1.20451e+07 -977095 187.715 12.6066 -45.8547 0.05 
1151 1 -1.13884 0.740945 7.0068 0 0 0 -0.143702 -32.4929 -200.127 0 -880920 -39.8079 6297.96 1939.14 -1328.72 0.05 
12807 1 -0.281145 0.748449 7.00114 0 0 0 2.13058 -221.683 -4.84064 -783952 -6.57218e+07 72949.5 1262.75 -10.3976 1620.96 0.05 
7302 1 -3.51231 0.817081 7.00769 0 0 0 399.023 -3648.14 -299.5 6.42056e+06 1.87384e+07 -133454 2399.68 4786.92 226.205 0.05 
12715 1 -3.09381 0.795419 7.00521 0 0 0 531.998 -587.411 -2.38161 -512017 -1.11572e+07 294067 4845.62 7266.68 2426.72 0.05 
12133 1 -2.35384 0.819602 7.0089 0 0 0 159.813 -3536.88 1.44121 -252752 5.62373e+06 66497.3 -1402.2 4424.44 3263.78 0.05 
12721 1 -0.945827 0.830381 7.00835 0 0 0 0.0929121 -2685.85 -197.214 -361394 -4.91893e+07 1.55842e+06 5099.23 6438.66 -512.287 0.05 
12971 1 -0.488417 0.823831 7.00857 0 0 0 0.560919 -814.943 -376.029 -112872 -4.05407e+07 -539851 5310.6 -1726.4 -645.376 0.05 
8282 1 -0.132561 0.80234 7.00935 0 0 0 0.0259048 -499.491 -0.159497 0 -1.31802e+07 -39.8079 5218.66 8.24512 -5141.88 0.05 
3315 1 -3.52227 -0.802822 7.04711 0 0 0 296.768 4519.13 3.74534 7.34493e+07 -6.07346e+07 782367 -967.065 -32.6437 145.844 0.05 
13799 1 -3.51152 -0.789676 7.01343 0 0 0 205.236 247.01 -17.6953 6.71603e+07 6.63029e+07 -3.62704e+06 -3230.23 3359.03 926.41 0.05 
9812 1 -3.48099 -0.80424 7.04742 0 0 0 8009.12 4400.58 6.33034 -2.69677e+08 -7.24981e+07 666016 -3112.93 -648.153 7531.89 0.05 
196 1 -3.09803 -0.837098 7.01095 0 0 0 -3.98621 1717.32 -0.863916 1.69329e+06 -4.41307e+08 336608 -4301.69 -11.022 -1089.64 0.05 
5196 1 -3.04842 -0.840083 7.0274 0 0 0 16.3564 -78371 1.18179 -2.51293e+06 1.00961e+09 6.46569e+06 -13982.8 2.94692 -2244.31 0.05 
5328 1 -2.50454 -0.813805 7.04191 0 0 0 24.3867 502.902 -132.569 -1.1132 2.39578e+07 -39.8079 -6425.42 5100.7 6678.67 0.05 
2998 1 -2.28318 -0.822826 7.03487 0 0 0 2.93389 3313.97 -10.4198 9.05271e+06 -3.52595e+07 -5.54822e+08 -710.867 -41.6563 715.171 0.05 
8924 1 -2.1772 -0.832691 7.04028 0 0 0 0.766619 974.37 0.0312337 -0.477308 6.98175e+07 -39.8079 100.661 -4.72561 5943.4 0.05 
3847 1 -1.89517 -0.802462 7.02185 0 0 0 0.728655 519.004 -1.22731 -0.250967 1.32621e+07 -39.8079 -4282.22 -6.35898 3437.52 0.05 
11919 1 -1.71645 -0.834926 7.03998 0 0 0 144.337 880.508 -0.715351 107989 7.78486e+07 -615454 4325.26 4624.8 6664.18 0.05 
7511 1 -1.59546 -0.821449 7.05581 0 0 0 8.00437 743.836 0.0338051 -0.138665 3.64352e+07 -39.8079 1055.26 206.745 -73.7087 0.05 
7214 1 -1.37446 -0.825141 7.04019 0 0 0 52.8846 733.374 0.11846 -0.0939949 4.49018e+07 -39.8079 1205.58 1709.53 -4107.52 0.05 
2483 1 -1.23788 -0.799458 7.02338 0 0 0 0.643274 172.838 0.242728 -1.83655e+07 -5.20633e+08 -1.73935e+07 -2584.51 21.4703 4343.57 0.05 
4837 1 -3.5841 -0.778075 7.04036 0 0 0 2127.72 197.924 6.02698 5.12338e+07 3.08186e+07 3.06827e+06 -2800.68 7236.67 4049.36 0.05 
3503 1 -3.40121 -0.788497 7.03287 0 0 0 22.7053 5354.7 4.62682 4.60436e+07 -5.69736e+07 2.62925e+06 -526.45 134.023 -40.4162 0.05 
10435 1 -3.40152 -0.781972 7.02073 0 0 0 103.267 194.346 -5.39433 4.03885e+07 6.99696e+07 -5.36113e+06 -963.257 3741.26 -1976.66 0.05 
1442 1 -3.17525 -0.758146 7.02102 0 0 0 135.529 296.907 -2.05894 701869 3.62644e+06 -245285 -594.564 5231.5 -6549.48 0.05 
9943 1 -2.9319 -0.770068 7.01532 0 0 0 75.482 476.208 1.41299 -81942 1.41654e+07 -517035 -2168.75 3116.68 -1355.45 0.05 
3695 1 -2.81563 -0.784202 7.05284 0 0 0 192.195 307.417 1.39378 -1.24756e+06 1.67392e+07 1.01274e+06 1047.87 4282.94 -9575.51 0.05 
13501 1 -2.71704 -0.75574 7.01576 0 0 0 150.104 -159036 1.3966 3.84469e+07 1.039e+09 -1.17384e+06 13930 4255.53 -1988.58 0.05 
2986 1 -2.3391 -0.774108 7.02387 0 0 0 114.15 58.8349 -31.9796 -2.01134e+07 1.56e+07 -5.50323e+08 -322.783 3309.97 -1112.52 0.05 
10357 1 -2.11963 -0.752998 7.01963 0 0 0 178.944 342.541 -0.149798 -0.415549 1.41882e+06 -39.8079 688.288 4857.42 -5131.27 0.05 
1959 1 -1.47923 -0.788047 7.0215 0 0 0 91.7508 5457.32 -327.65 -1.34481e+06 -2.45984e+07 990767 -6343.35 2629.57 -209.855 0.05 
5135 1 -1.13203 -0.748004 7.0594 0 0 0 10.1771 98.3792 -1.90531 1.19709e+06 3.90173e+07 -1.4502e+06 -277.739 -192.099 -133.708 0.05 
7950 1 -0.983717 -0.778454 7.02039 0 0 0 -0.830051 329.872 -1.64427 -481704 3.4698e+07 -410910 -1293.67 31.4397 -4071.57 0.05 
1945 1 -0.921271 -0.78757 7.05847 0 0 0 -2.72435 5391.63 4.2031 -924009 -6.01268e+07 1.64166e+06 -2489.83 31.043 767.576 0.05 
8455 1 -0.88017 -0.759772 7.02994 0 0 0 3.60947 89.0775 -2.62643 1.40571e+06 3.79247e+07 -1.23087e+06 -1083.63 -0.61632 -1677.43 0.05 
14035 1 -0.502837 -0.768053 7.06003 0 0 0 2.21429 307.024 -280.711 321849 4.94686e+06 -152871 7846.42 2639.79 -3596.57 0.05 
3099 1 -0.402941 -0.762511 7.03134 0 0 0 0.345369 387.417 -92.0696 -556417 4.7699e+06 -1.44543e+06 -1822.44 -3553.03 2342.77 0.05 
7914 1 -0.276841 -0.742957 7.01916 0 0 0 93.5731 569.924 0.0300633 7.59089e+08 1.56027e+07 -6.93355e+06 -3578.98 -378.08 -910.637 0.05 
9896 1 -3.06861 -0.703238 7.01043 0 0 0 312.179 -107.35 -0.133956 41.7014 226129 -39.8079 -3530.55 2035.51 -6069.64 0.05 
3621 1 -2.66472 -0.727246 7.01338 0 0 0 282.077 264.71 -0.476189 -3.84469e+07 -1.03688e+09 1.17376e+06 -4435.03 4276.69 -3093.28 0.05 
8987 1 -2.22031 -0.73117 7.04798 0 0 0 388.738 33.7656 -7.05942 1.89235e+07 7.05339e+06 -4.83093e+08 581.367 3348.28 -2829.89 0.05 
8822 1 -1.96253 -0.706076 7.04468 0 0 0 521.027 394.978 -0.277994 -0.290272 248959 -39.8079 -313.808 4662.34 -5803.63 0.05 
12201 1 -1.59163 -0.692441 7.01804 0 0 0 291.189 378.353 0.0540876 -0.137688 158116 -39.8079 -5824.46 -1008.45 -5693.17 0.05 
5056 1 -1.49011 -0.712724 7.04647 0 0 0 205.179 202.998 -101.191 1.34481e+06 3.14682e+07 -990846 4005.73 -3436.96 -11199.5 0.05 
13416 1 -0.0534992 -0.704986 7.01741 0 0 0 0.512183 208.907 -0.347389 0 239905 -39.8079 -3621.2 0.0576502 -5308.31 0.05 
5834 1 -3.55036 -0.660375 7.01345 0 0 0 423.281 0.351105 0.125045 1.19274e+07 58548.2 -39.8079 -0.0222797 -488.626 187.09 0.05 
13018 1 -2.9649 -0.646613 7.03242 0 0 0 313.562 195.273 0.586205 5.59083 39314.9 -39.8079 2715.75 -3248.88 5486.66 0.05 
9436 1 -2.74288 -0.658709 7.01093 0 0 0 342.02 -7.00114 -0.0937113 -1.79824 55746.5 -39.8079 -14.8129 -65.9384 137.286 0.05 
1637 1 -2.05684 -0.661993 7.02217 0 0 0 330.595 444.95 0.044978 -0.358837 61420.1 -39.8079 -2667.42 -1765.54 -2225.29 0.05 
3779 1 -1.79807 -0.671222 7.04412 0 0 0 360.171 191.182 4.54352 4.35504e+08 -3.53315e+08 1.74486e+07 -2303.29 -2557.16 384.741 0.05 
8682 1 -1.38752 -0.678861 7.04812 0 0 0 373 436.636 0.647489 495683 3.69318e+07 359421 -444.045 -1917.58 1424.23 0.05 
275 1 -1.21425 -0.648805 7.04166 0 0 0 416.234 114.607 3.15192 -3.03715e+06 1.002e+08 -626884 -5634.28 -435.7 2519.69 0.05 
10520 1 -1.02849 -0.673135 7.02697 0 0 0 318.279 330.495 0.214886 0 85936.3 -39.8079 1152.77 -2393.44 -3672.98 0.05 
6423 1 -0.929509 -0.656091 7.04164 0 0 0 296.46 0.245424 0.121478 0 51635 -39.8079 -0.798098 -4328.2 816.171 0.05 
73 1 -0.763595 -0.652987 7.04113 0 0 0 297.157 540.585 0.30959 0 47187.8 -39.8079 -2834.11 -4257.59 634.06 0.05 
2585 1 -0.642919 -0.673137 7.04487 0 0 0 286.353 -9.88943 -0.383793 0 85940.7 -39.8079 1817.14 -4619.29 -7029.47 0.05 
6037 1 -0.538126 -0.670922 7.03714 0 0 0 274.453 11001.5 -8.84798 -199357 -1.28238e+08 3.40558e+06 -4009.36 -3126.95 -8812.4 0.05 
6401 1 -0.452931 -0.658573 7.02515 0 0 0 324.291 160.744 -3.21545 1.85941e+06 1.24795e+08 -31449.9 -2260.73 -2127.17 1806.33 0.05 
5416 1 -0.404 -0.647838 7.05939 0 0 0 253.871 12120.6 5.73952 -1.4108e+06 -2.25986e+08 3.2123e+06 -4857.65 -5862.21 9099.55 0.05 
3121 1 -0.27454 -0.642847 7.05734 0 0 0 179.227 628.998 5.26184 9.85226e+08 -1.55757e+07 -3.52661e+07 1633.78 -3784.76 3567.64 0.05 