ITEM: TIMESTEP
190000
ITEM: NUMBER OF ATOMS
14052
ITEM: BOX BOUNDS ff pp ff
-3.75 3.75
-1 1
0 10
ITEM: ATOMS id type x y z ix iy iz vx vy vz fx fy fz omegax omegay omegaz radius 
13821 1 -1.59505 -0.511761 6.60708 0 0 0 0.275184 105.573 -171857 -0.138558 1506.79 -39.8079 4511.3 3783.37 -2558.63 0.05 
9412 1 -2.15416 -0.351795 6.59838 0 0 0 1.89465 14.6511 -171840 -0.451349 75.4812 -39.8079 -9278.38 13846.1 5701.27 0.05 
10206 1 -3.22706 0.655303 6.61995 0 0 0 223.624 -338.276 -170107 744.542 -50463.8 -39.8079 5136.14 -10974 -8981.36 0.05 
12795 1 -2.99091 -0.318042 6.65504 0 0 0 496.068 -76.1836 -168732 9.85612 42.2053 -39.8079 -10403.9 3184.62 3882.04 0.05 
13215 1 -0.227484 -0.109691 6.64594 0 0 0 -0.415757 615.338 -169069 0 0.614838 -39.8079 56.5582 22216.6 -6775.57 0.05 
4371 1 -1.71274 0.399539 6.67933 0 0 0 0.978137 -152.085 -167037 -0.17318 -174.602 -39.8079 17513.9 -2599.57 17.1685 0.05 
11397 1 -0.430419 0.75382 6.68441 0 0 0 0.381765 57.9995 -166689 0 -1.46692e+06 -39.8079 9019.46 16450.5 -5556.43 0.05 
12202 1 -1.70044 -0.494051 6.72595 0 0 0 179.822 82.4982 -164076 -0.169094 1046.52 -39.8079 9591.61 11592.2 3632.57 0.05 
7183 1 -0.75052 -0.36436 6.68906 0 0 0 -0.775491 310.248 -166448 0 93.8828 -39.8079 -12783.2 -9045.73 -4366.71 0.05 
10576 1 -3.27265 0.237094 6.73622 0 0 0 288.576 -171.664 -164748 1895.73 -10.2488 -39.8079 -34639.3 13625.1 1203.32 0.05 
13017 1 -1.4873 -0.79997 6.74898 0 0 0 0.909249 550.659 -163153 -0.114109 1.16994e+07 -39.8079 -24189.3 -7438.98 3021.17 0.05 
8448 1 -0.483482 -0.802693 6.80592 0 0 0 0.508839 311.685 -159922 0 1.34181e+07 -39.8079 -5624.8 -12451.1 599.922 0.05 
11202 1 -0.851272 0.248443 6.82333 0 0 0 123.447 238.648 -159224 0 -12.5733 -39.8079 -9912.06 27218.7 2176.75 0.05 
13635 1 -1.11899 0.678586 6.81455 0 0 0 1.12983 -248.621 -159669 0 -101704 -39.8079 23219.4 1106.72 3265.97 0.05 
11049 1 -2.65026 -0.218425 6.84434 0 0 0 133.741 -5.57851 -157302 -1.58724 7.26341 -39.8079 18.8217 -15907.8 3665.63 0.05 
9405 1 -1.4955 0.136126 6.85464 0 0 0 152.159 358.674 -157452 -0.11577 -1.26317 -39.8079 -11061.2 -4222.8 -1838.13 0.05 
12319 1 -0.0529313 0.160106 6.87049 0 0 0 -0.207636 85.6351 -158386 0 -2.22549 -39.8079 -4133.99 98548.8 -3973.59 0.05 
11924 1 -1.4842 0.252369 6.8872 0 0 0 -0.0419407 -133000 -156142 -0.113487 -13.485 -39.8079 -5424.74 -4083.68 9861.88 0.05 
13254 1 -1.96442 0.528957 6.88229 0 0 0 -0.150736 27.6482 -155765 -0.291483 -2170.96 -39.8079 -7367.64 -23625.4 3565.41 0.05 
12761 1 -0.541568 0.533937 6.87683 0 0 0 0.273628 -327.084 -156298 0 -2418.55 -39.8079 16792.2 -12762.6 -880.602 0.05 
12566 1 -1.89948 0.276416 6.93646 0 0 0 77.5359 -316.99 -153216 2.14152e+06 -1.05587e+07 6.62209e+08 -16666.8 2025.26 5382.77 0.05 
11242 1 -1.16453 0.580873 6.9085 0 0 0 -0.0422323 -200.695 -155175 0 -7076.69 -39.8079 11388 -13157.8 4496.39 0.05 
12900 1 -3.49153 0.806914 6.9215 0 0 0 308.707 -482.022 -151864 -3.52875e+07 -4.61817e+07 1.50937e+09 -23780.7 40177.8 -3110.94 0.05 
8681 1 -0.510974 0.82973 6.92399 0 0 0 -1.11192 -625.613 -153795 1.3195e+07 -7.0736e+07 7.72475e+08 -50687.4 12102.2 1237.69 0.05 
14013 1 -3.30285 -0.843126 7.00185 0 0 0 0.0298832 1300.7 -0.0987389 3680.43 1.32943e+08 -39.8079 -957.997 4.39134 3796.95 0.05 
12327 1 -1.10086 -0.82492 7.00053 0 0 0 0.103103 549.014 -1.55923 -6889.06 6.58404e+07 458481 -4555.87 -24.7261 4624.15 0.05 
6695 1 -0.781351 -0.832939 7.00087 0 0 0 0.0781568 831.216 -0.798294 0 7.08603e+07 -39.8079 -1135.51 -2.30872 278.721 0.05 
13221 1 -0.460281 -0.835743 7.00182 0 0 0 0.331561 809.147 -274.901 298261 7.96608e+07 1.5663e+06 -9944.96 -3127.08 -469.127 0.05 
13855 1 -1.76264 -0.757748 7.00277 0 0 0 29.6419 239.864 -0.381308 -2.72769e+06 6.3294e+07 424154 -1432.75 86.1242 -4536.56 0.05 
12243 1 -0.70481 -0.753256 7.00116 0 0 0 30.3066 298.61 0.152869 6.51113e+08 -4.16851e+06 1.87329e+06 -5576.15 139.617 -5958.08 0.05 
11028 1 -0.585245 -0.768331 7.0005 0 0 0 -1.47347 217.353 -1.08562 1.41892e+06 5.71633e+07 1.97488e+06 -3645.7 -1.7086 4671 0.05 
5466 1 -0.11556 -0.786209 7.00645 0 0 0 -0.314561 358.483 -1.02511 0 6.01435e+06 -39.8079 -6037.33 -0.618337 -1906.12 0.05 
13426 1 -3.28755 -0.735942 7.00828 0 0 0 232.602 166.666 1.12892 2616.88 727490 -39.8079 -1244.43 3585.95 138.524 0.05 
11386 1 -2.48429 -0.719864 7.00823 0 0 0 283.798 259.362 -0.0834105 -1.0552 402686 -39.8079 -3055.89 3335.55 -791.246 0.05 
7434 1 -1.82371 -0.708555 7.00846 0 0 0 10.4272 10966.7 -2.67191 5.32654e+06 -1.67952e+08 -3.04281e+06 2394.78 553.934 -500.249 0.05 
11448 1 -3.35577 -0.659185 7.00548 0 0 0 340.198 0.37119 -0.219941 13109.2 56531.2 -39.8079 0.00307506 769.836 372.976 0.05 
9043 1 -2.28087 -0.66228 7.00118 0 0 0 336.629 0.419006 -0.206757 -0.618367 61943.7 -39.8079 -0.656762 1489.2 -132.249 0.05 
9387 1 -1.88931 -0.635977 7.00196 0 0 0 376.453 69.969 -2.67847 -4.17094e+06 1.16533e+08 -2.24876e+06 -2086.21 2373.07 18.2859 0.05 
13214 1 -1.70597 -0.642859 7.00819 0 0 0 340.558 265.75 -0.248703 -0.170915 35361 -39.8079 -3942 605.583 6145.25 0.05 
13698 1 -0.549039 -0.636431 7.00082 0 0 0 54.5619 29.3135 -1.11479 -6582.83 6.58486e+07 -2.91281e+06 -478.935 960.155 -2233.76 0.05 
3890 1 -3.46014 -0.604568 7.00435 0 0 0 443.852 0.0862125 -0.0221892 286190 12714.6 -39.8079 1.2815 3947.3 792.38 0.05 
14036 1 -2.37703 -0.629561 7.00114 0 0 0 394.682 174.37 -0.0344765 -0.793848 24502.1 -39.8079 -2710.41 2986.9 -5060.3 0.05 
13329 1 -1.33399 -0.596348 7.00407 0 0 0 429.392 119.636 0.762048 7.29609e+06 -4.76242e+08 -783132 -1682.53 4175.37 -8814.13 0.05 
1680 1 -1.26735 -0.61254 7.00984 0 0 0 0.828378 -79635.1 -4.42271 -3.16646e+07 2.26701e+09 -1.34712e+07 -47422.8 33.9543 -9052.05 0.05 
5912 1 -0.36053 -0.602793 7.00152 0 0 0 -0.299196 237.6 -0.10968 0 12154.6 -39.8079 -2478.73 -0.421748 5851.37 0.05 
11316 1 -2.81503 -0.558874 7.00169 0 0 0 291.794 0.0525764 -0.177787 -1.57507 4222.13 -39.8079 -1.05983 4768.67 -1145.86 0.05 
11479 1 -2.46189 -0.537891 7.00582 0 0 0 299.846 295.084 -0.616728 -0.994286 2637.03 -39.8079 -3807.54 4303.05 3977.56 0.05 
12594 1 -0.81775 -0.551128 7.00681 0 0 0 303.89 279.526 -0.794471 0 3540.36 -39.8079 -177.296 4239.65 4811.8 0.05 
10556 1 -0.712609 -0.543401 7.00977 0 0 0 309.632 345.236 -0.923779 530119 8.81753e+07 4.12106e+06 -4931.31 3847.6 -3550.75 0.05 
9307 1 -0.262777 -0.538647 7.00187 0 0 0 -1.54344 295.788 -0.256917 -4.36656e+06 1.07336e+08 -251265 -2828.5 -12.41 -4350.59 0.05 
6295 1 -3.22437 -0.473908 7.0094 0 0 0 131.126 -0.20536 -9.94664 2.02124e+07 -1.22507e+07 -5.93675e+08 -214.553 1369.94 4987.72 0.05 
12205 1 -3.12296 -0.502744 7.00452 0 0 0 227.63 -112.66 -1.03691 352417 310322 -389844 359.871 3473.86 790.991 0.05 
7966 1 -2.02516 -0.522427 7.00055 0 0 0 271.21 261.379 -1.14484 -0.333793 1887.25 -39.8079 -5905.43 4623.78 3846.23 0.05 
10984 1 -1.50582 -0.507638 7.00424 0 0 0 247.491 161.525 -92.9569 306868 127738 -973494 -3805.53 -294.527 486.855 0.05 
13525 1 -1.3745 -0.494367 7.00957 0 0 0 222.077 326.742 -0.584606 -0.0940019 1053.25 -39.8079 -1859.67 2852.5 4022.16 0.05 
5517 1 -3.52651 -0.433736 7 0 0 0 7147.58 -6.72159 -3.24305 -4.49889e+07 -67171.9 -39604.8 -2.38111 -1946.91 3185.1 0.05 
13644 1 -2.1591 -0.470536 7.00202 0 0 0 110.634 295.014 -0.733124 -0.456772 655.574 -39.8079 -1849.96 1867.61 8400.44 0.05 
7418 1 -1.68384 -0.451531 7.00132 0 0 0 0.213807 284.168 -265.532 -0.163766 454.645 -39.8079 328.221 -2172.79 1207.14 0.05 
3483 1 -0.640842 -0.471735 7.00941 0 0 0 131.551 -72.6925 -1.15173 2.13085e+06 1.15389e+08 -1.58993e+06 3332.35 1730.24 3805.27 0.05 
6072 1 -3.06718 -0.414917 7.00667 0 0 0 0.403147 -74.479 -0.234188 40.6648 230.385 -39.8079 -2885.73 21.0152 720.175 0.05 
11339 1 -2.07383 -0.376344 7.00644 0 0 0 2.34727 428.744 -117.104 -0.373204 115.768 -39.8079 -6443.07 -4632.08 -1266.77 0.05 
12492 1 -1.42301 -0.406603 7.00997 0 0 0 -0.63705 285.085 -0.341027 -0.102059 198.211 -39.8079 -1611.93 4.32213 4928.68 0.05 
2539 1 -1.1615 -0.407865 7.0089 0 0 0 0 0.000949433 -0.00018639 0 202.774 -39.8079 0 0 0 0.05 
6261 1 -0.775943 -0.373514 7.00105 0 0 0 3.03155 211.073 -313.009 -1.68015e+07 9.26173e+08 2.06719e+07 -1070.22 3731.53 954.86 0.05 
11157 1 -0.354931 -0.414324 7.00165 0 0 0 -0.363799 253.588 -0.0297182 0 227.917 -39.8079 -2619.93 -3.18921 5536.32 0.05 
12860 1 -0.240008 -0.410906 7.00328 0 0 0 0.0777527 171.864 0.0341015 0 214.223 -39.8079 -1701.5 2.05304 -5876.28 0.05 
3298 1 -2.40165 -0.353819 7.00838 0 0 0 63.0615 248.842 -87.2514 -1.3067e+07 -8.59641e+06 -9.22662e+08 -4830.77 2257.76 -8396.4 0.05 
13080 1 -1.63049 -0.3276 7.0038 0 0 0 0.0385729 345.76 -0.0503864 -0.148 49.7384 -39.8079 -6845.73 -0.713403 -1185.37 0.05 
11927 1 -1.26368 -0.323879 7.00107 0 0 0 0.226222 -336.624 -0.503192 -0.0783716 46.6574 -39.8079 1481.56 0.0700482 588.26 0.05 
246 1 -1.97833 -0.309339 7.00776 0 0 0 2.58848 227.924 -0.398439 -0.30056 36.3434 -39.8079 -4403.37 41.5921 -4668.23 0.05 
13413 1 -0.751382 -0.272992 7.00914 0 0 0 0.297351 55.9745 -73.024 141642 684052 -44957.7 5147.69 29.8736 1843.19 0.05 
13443 1 -2.62743 -0.237806 7.00825 0 0 0 312.675 201.801 -305.018 -1.07142e+07 -2.47737e+08 1.3302e+07 -8027.59 -1793.83 4527.24 0.05 
11055 1 -1.5872 -0.22596 7.00949 0 0 0 -0.0324126 315.79 -0.139979 -0.13657 8.35765 -39.8079 -6433.73 1.14032 -30.705 0.05 
9031 1 -1.07492 -0.256715 7.00496 0 0 0 -0.173324 288.445 -0.0675115 0 14.5664 -39.8079 -2013.9 -0.121055 4644.63 0.05 
10863 1 -3.56691 -0.176179 7.00655 0 0 0 4555.13 -1.3927 -0.804351 2.60788e+06 -1.33989e+06 -933135 18.4966 90.2666 4514.96 0.05 
11894 1 -3.17439 -0.176294 7.00157 0 0 0 96.1678 0.673775 -0.384489 -33222.5 1.43951e+06 -766787 -14.0854 757.221 4105.92 0.05 
4622 1 -1.82237 -0.208524 7.01014 0 0 0 -0.19448 -334.907 -0.538652 -0.215589 6.02051 -39.8079 1599.97 0.0975273 -596.71 0.05 
7242 1 -1.01376 -0.158779 7.00817 0 0 0 0.289089 303.41 -0.042172 0 2.16032 -39.8079 -1641.05 1.04595 -3971.61 0.05 
12122 1 -0.561729 -0.185339 7.00189 0 0 0 0 1.78366e-05 -0.00018639 0 3.80942 -39.8079 0 0 0 0.05 
13658 1 -0.159217 -0.165513 7.00064 0 0 0 -1.37361 -79.6397 -100.172 6.42604e+06 -2.78157e+08 -1.91753e+06 -2667.02 -3419.55 -3351.41 0.05 
10082 1 -0.074745 -0.184639 7.00178 0 0 0 0.772462 -58258.3 -0.870313 -3.67255e+06 6.98877e+08 5.29159e+06 -35566.2 -14.9431 -19833.5 0.05 
12127 1 -2.82774 -0.110132 7.00675 0 0 0 -6.79482e-06 2.91683e-06 -0.00018639 -1.45119 0.622957 -39.8079 0 0 0 0.05 
6839 1 -2.93705 -0.0594726 7.0006 0 0 0 90.5351 278.208 -0.286064 2.64966 0.0892207 -39.8079 -1584.08 3571.92 -6965.08 0.05 
9952 1 -1.27571 -0.0696852 7.0053 0 0 0 -0.277235 -336.139 -0.246249 -0.0799024 0.145626 -39.8079 792.186 0.398672 -1303.01 0.05 
13065 1 -0.446808 -0.0701493 7.00084 0 0 0 0 6.96063e-07 -0.00018639 0 0.148661 -39.8079 0 0 0 0.05 
11753 1 -2.68512 -0.00861324 7.00569 0 0 0 154.455 0.506773 1.36963 -12663.5 -7151.47 2314.68 6.03599 5678.91 1120.2 0.05 
13038 1 -2.38518 -0.0473039 7.01027 0 0 0 160.982 206.828 -0.561278 -0.811099 0.0442595 -39.8079 -2305.07 5521.76 -8074.61 0.05 
9721 1 -2.21408 -0.0455419 7.00071 0 0 0 122.633 106.586 -0.219254 -0.52265 0.0394249 -39.8079 -727.851 4821.91 3058.83 0.05 
11177 1 -1.65999 -0.0165981 7.00187 0 0 0 143.608 -18.4724 -0.470514 -0.156472 0.00187132 -39.8079 887.624 5539.25 74.6694 0.05 
10773 1 -0.273208 -0.0444721 7.00243 0 0 0 1.30246 251.166 -136.946 -1.07946e+07 2.80099e+08 436229 1938.27 3061.04 -4369.97 0.05 
9438 1 -3.56275 0.0218655 7.00377 0 0 0 4833.92 3.85936 2.46135 -5.11226e+06 768902 -122258 -120.727 2355.48 -778.872 0.05 
1157 1 -1.05369 0.0215084 7.00783 0 0 0 -0.194199 326.244 -0.162662 0 -0.00408026 -39.8079 -1791.59 -0.118542 1895.24 0.05 
2032 1 -0.422475 0.0502767 7.00115 0 0 0 0 -2.49605e-07 -0.00018639 0 -0.053309 -39.8079 0 0 0 0.05 
5587 1 -2.27513 0.0582498 7.00885 0 0 0 49.1471 -0.000492672 1.55426e-05 -0.609384 -0.0836974 -39.8079 0.0239871 1769.72 -1519.39 0.05 
4228 1 -2.03944 0.0879556 7.00419 0 0 0 120.123 21.7142 -0.00877342 -0.344807 -0.30227 -39.8079 174.806 4568.87 -2899.29 0.05 
5683 1 -1.90278 0.0583707 7.00453 0 0 0 24.249 -107.826 0.00144469 -0.255065 -0.0842327 -39.8079 833.517 926.83 -5260.36 0.05 
11421 1 -3.56382 0.155118 7.00339 0 0 0 4744.89 1.1563 2.16514 -8.12174e+06 907769 -301144 -49.6143 2880.97 932.448 0.05 
1592 1 -1.44071 0.116444 7.00969 0 0 0 163.874 236.554 -226.752 5.25392e+08 -1.98333e+06 2.76145e+07 -3522.6 -311.322 5886.79 0.05 
12444 1 -0.778917 0.12122 7.00851 0 0 0 2.18062 -140184 -112.276 8.48144e+06 2.37448e+09 2.93014e+07 31313.4 -4039.83 -12233.3 0.05 
3720 1 -0.322286 0.112156 7.00095 0 0 0 -0.049681 7.82514 -0.0356782 -1.58093e+06 2.30365e+08 -1.33126e+06 -83.1537 -0.31891 46.077 0.05 
11518 1 -3.2494 0.18617 7.00468 0 0 0 0.469729 -0.242333 -231.332 1166.5 -3.87441 -39.8079 -5741.44 -2678.64 -8.76268 0.05 
8568 1 -3.02181 0.190765 7.00797 0 0 0 -1.97627 -3.20615 -0.944424 -3.57774e+07 -8.75342e+08 -7.13852e+06 -1203.8 25.0891 5897.91 0.05 
11832 1 -2.59856 0.185935 7.00213 0 0 0 -6.61958e-06 -1.80541e-05 -0.00018639 -1.41377 -3.85589 -39.8079 0 0 0 0.05 
11037 1 -1.58346 0.168437 7.00302 0 0 0 74.343 233.17 -75.9176 4.98874e+06 -4.68616e+06 -5.64555e+08 -5427.78 5070.18 4133.41 0.05 
5472 1 -1.06037 0.184928 7.00206 0 0 0 -1.99853 230.684 -2.06895 -2.82181e+07 -9.77073e+08 -2.73567e+07 -1936.04 2.38787 2098.95 0.05 
8636 1 -0.449458 0.160539 7.00617 0 0 0 1.74344 -68.5668 -0.229246 -597639 -2.06172e+08 45670.3 614.264 6.5987 2699.07 0.05 
13760 1 -3.59374 0.254954 7.00093 0 0 0 1293.54 -0.0778738 0.196348 1.33918e+08 -20769.6 197221 0.374661 2195.46 773.138 0.05 
10467 1 -3.39086 0.225085 7.00623 0 0 0 0.156555 -3.8504e-05 -0.00018639 33435.1 -8.22345 -39.8079 0 0 0 0.05 
3741 1 -1.25447 0.227226 7.0102 0 0 0 0.444528 -331.801 -0.221647 -0.0772231 -8.55549 -39.8079 -7.20369 -1.50365 1997.48 0.05 
6836 1 -0.737041 0.276072 7.00358 0 0 0 0.329174 -200.019 -0.189005 0 -20.4586 -39.8079 1863.39 -3.21475 6122.28 0.05 
5181 1 -3.31469 0.347482 7.00143 0 0 0 339.612 -63.5185 -1.1291 -4.86107e+06 -1.91346e+08 -4.9709e+06 782.333 5784.72 -6338.96 0.05 
5457 1 -2.832 0.322903 7.00513 0 0 0 219.047 0.621266 0.199374 -1.40102 -45.8812 -39.8079 -7.83823 5332.69 -4936.98 0.05 
9264 1 -2.58925 0.319094 7.01012 0 0 0 39.9767 0.0464883 -0.172655 1.95133e+08 -3.80133e+06 -8.70654e+06 2.25636 25.9779 -1769.79 0.05 
7879 1 -2.47572 0.352014 7.01012 0 0 0 198.792 157.298 -3.5605 2.20988e+06 -1.9164e+08 1.36171e+06 61.4102 -649.846 -4003.08 0.05 
13743 1 -2.14003 0.356226 7.00112 0 0 0 -0.334528 20.3708 -0.60352 -0.436277 -81.5042 -39.8079 1655.22 -0.653744 173.091 0.05 
12717 1 -1.96599 0.367311 7.00125 0 0 0 0.730369 -82.8917 -0.624271 -2.02592e+06 -1.45585e+08 1.72652e+06 1928.09 -3.26001 2900.67 0.05 
5648 1 -1.35464 0.328935 7.00359 0 0 0 1.37041 155.65 -0.142196 -1.41545e+07 4.13185e+08 -374252 -1963.19 7.2321 -8249.24 0.05 
13166 1 -2.27371 0.416997 7.00305 0 0 0 72531.4 332.11 -0.237633 -1.08836e+09 -1.18342e+08 -2.34996e+07 -650.115 -46001.1 -16502.7 0.05 
11062 1 -0.77139 0.404084 7.00206 0 0 0 0.22249 -290.814 -0.61952 0 -189.428 -39.8079 2854.09 -2.63378 3931.26 0.05 
12140 1 -0.47041 0.382623 7.00346 0 0 0 -1.91319 -397.559 -1.36101 6.57725e+06 -1.80802e+08 3.58879e+06 4597.5 -4.6558 1531.96 0.05 
4450 1 -3.09859 0.435591 7.00508 0 0 0 317.462 -118.417 -0.266672 837291 424491 -37237.1 -1695.03 -183.877 -579.549 0.05 
13401 1 -1.49073 0.446521 7.00728 0 0 0 -0.0579915 -11.8238 -138.689 -0.114801 -413.495 -39.8079 3753.48 445.225 -4183.72 0.05 
13997 1 -1.31738 0.437796 7.0015 0 0 0 1.78298 -327.03 -2.42396 1.35215e+07 2.09163e+08 3.18815e+06 3761.51 -6.3663 -4770.57 0.05 
12657 1 -1.2116 0.459067 7.00115 0 0 0 0.149443 -231.992 -0.1123 0 -525.027 -39.8079 996.856 -2.47231 6286.94 0.05 
13330 1 -0.0551613 0.429597 7.00397 0 0 0 0.727938 -322.146 -0.203212 0 -301.473 -39.8079 -283.101 -2.77456 2996.53 0.05 
12618 1 -3.58886 0.48505 7.00063 0 0 0 1102.76 -184.488 -1.22633 9.71565e+07 762047 -508151 6148.51 679.127 1730.12 0.05 
2817 1 -2.63642 0.483904 7.00439 0 0 0 185.563 -233.512 -1.24095 -1.54168 -853.426 -39.8079 5470.18 -160.668 9756.99 0.05 
10857 1 -2.38624 0.479687 7.00861 0 0 0 210.262 13.6215 -0.58366 -1.35997e+07 4.41542e+08 4.14897e+06 1832.94 -505.193 6184.96 0.05 
1235 1 -2.11836 0.525901 7.00693 0 0 0 0.442352 -71.4543 -0.821686 5.75641e+06 -5.9506e+08 -1.21472e+07 3293.47 -0.849243 -2900.64 0.05 
13078 1 -1.40171 0.5095 7.00401 0 0 0 -3.1358 -182.781 -96.391 -2.73309e+07 -7.78152e+07 -1.01968e+09 3658.71 1627.35 -3552.15 0.05 
12409 1 -0.163606 0.481941 7.00725 0 0 0 0.00492049 -89.4893 -0.0195836 0 -820.708 -39.8079 -239.633 0.847826 -3950.1 0.05 
10883 1 -3.17128 0.533047 7.00859 0 0 0 0.353979 -13.0255 -0.147024 2.09711e+06 -8.24149e+07 -1.04078e+06 86.7465 3.76868 -125.607 0.05 
3048 1 -3.04699 0.571228 7.00356 0 0 0 1.50765 -180.216 -0.252761 28.4138 -5625.44 -39.8079 -1506.58 23.152 -747.033 0.05 
3352 1 -1.5155 0.553439 7.00714 0 0 0 -4.01132 80.2467 -1.95994 -1.46923e+06 -1.25931e+08 -1.17418e+06 -2409.57 -39.6993 -6592.23 0.05 
13715 1 -1.90686 0.60014 7.00459 0 0 0 -2.53947 -85.6948 -73.5243 -736432 65320.8 -70408.5 3304.1 -2177.61 -3673.29 0.05 
13544 1 -1.42288 0.609779 7.00745 0 0 0 0.937474 -299.9 -19.9449 -9.58992e+06 -8.90762e+07 -6.14032e+08 7231.18 552.198 752.279 0.05 
13720 1 -3.0367 0.678111 7.00919 0 0 0 319.906 -197.422 -0.495867 23.6057 -100211 -39.8079 -2480.01 6102.85 -5891.86 0.05 
10007 1 -2.65611 0.640279 7.0042 0 0 0 419.229 -315.945 -2.42919 -1.60605 -32897.7 -39.8079 6108.15 5255.52 -8261.48 0.05 
11300 1 -2.10426 0.642857 7.00818 0 0 0 78.8406 -342.894 -4.06489 4.31815e+08 -8.38227e+08 8.54367e+06 5187.53 1906.8 -4001.21 0.05 
8166 1 -1.99964 0.639593 7.0005 0 0 0 0.383348 -218.238 -0.252086 -0.315161 -32275.3 -39.8079 5038.88 4.43206 3941.41 0.05 
13670 1 -1.26 0.667997 7.00023 0 0 0 0.224886 -333.168 -0.406486 -0.0779098 -73503 -39.8079 1502.69 -0.408066 1134.51 0.05 
5082 1 -0.782969 0.650493 7.00554 0 0 0 -0.0708252 -313.726 -0.530668 0 -43917.7 -39.8079 2508.34 0.396106 2485.1 0.05 
12413 1 -0.277157 0.637298 7.00322 0 0 0 -0.000860937 -41.4706 0.00178677 0 -30283.3 -39.8079 1827.02 -0.0751245 -773.754 0.05 
1098 1 -0.0776905 0.650761 7.00135 0 0 0 -0.280266 -342.348 -0.0682089 0 -44257.3 -39.8079 97.9772 0.0352206 -447.284 0.05 
11065 1 -0.676985 0.687267 7.00172 0 0 0 0 -0.626527 -0.00018639 0 -133793 -39.8079 0 0 0 0.05 
13682 1 -3.49964 0.779248 7.0009 0 0 0 209.301 -101.917 -292.112 2.18145e+07 -9.55898e+06 -8.22069e+08 -3562.95 6857.64 -2343.94 0.05 
13918 1 -3.39795 0.768697 7.00287 0 0 0 334.741 -109.22 -0.331719 -387849 -1.137e+07 -654910 1099.44 7552.15 -7679.97 0.05 
8765 1 -2.64913 0.743568 7.00021 0 0 0 458.574 -289.385 0.209167 -1.58355 -975346 -39.8079 6231.04 8990.58 8896.36 0.05 
5525 1 -1.71873 0.759547 7.00444 0 0 0 0.937522 -44.6403 -1.33503 481933 -2.81278e+07 -1.32131e+06 689.67 19.2119 62.8061 0.05 
13280 1 -1.58285 0.752098 7.00241 0 0 0 -0.572008 92.3968 -3.08405 3.0851e+06 -7.10467e+08 5.88011e+06 -2556.2 9.14786 986.409 0.05 
1151 1 -1.13884 0.741042 7.0074 0 0 0 -0.14464 -31.7732 -200.128 178628 -1.3811e+07 248783 6297.45 1939.19 -1325.48 0.05 
12807 1 -0.281152 0.749091 7.00116 0 0 0 2.50018 -191.359 -5.22161 59355.2 -6.87416e+07 -28942 1730.68 -9.92949 917.618 0.05 
7302 1 -3.5135 0.828047 7.00859 0 0 0 393.906 -3660.71 -292.098 2.72896e+07 1.01854e+07 -6.89793e+08 2628.9 4708.98 446.866 0.05 
12715 1 -3.09541 0.796913 7.00522 0 0 0 532.757 -465.741 -2.95064 -551595 -1.16208e+07 594928 367.308 7309.32 4294.77 0.05 
12133 1 -2.35432 0.83021 7.00889 0 0 0 159.984 -3531.51 1.36722 -276261 -2.29859e+07 293029 -1077.64 4473.37 3400.58 0.05 
12721 1 -0.945826 0.838372 7.0089 0 0 0 -2.38702 -2637.89 -66.0979 -2.23981e+07 -8.39074e+07 -8.91894e+08 4840.48 2128.14 -464.276 0.05 
12971 1 -0.488419 0.826229 7.00969 0 0 0 0.827173 -782.874 -364.06 -1.33094e+07 -3.46828e+07 -7.73031e+08 5323.71 -1603.75 -642.802 0.05 
8282 1 -0.132562 0.803823 7.00935 0 0 0 0.0259048 -489.369 -0.159468 0 -1.42116e+07 -39.8079 5218.66 8.24512 -5141.88 0.05 
196 1 -3.09802 -0.842456 7.01095 0 0 0 0.0183972 1765.09 -0.0146529 69.8673 1.27389e+08 -39.8079 -5335.05 0.855964 1988.31 0.05 
9812 1 -3.50527 -0.8175 7.0474 0 0 0 8167.21 4433.62 6.55341 -1.82781e+08 -3.64729e+07 -778005 -3325.96 -439.801 6691.54 0.05 
3315 1 -3.52308 -0.81644 7.0471 0 0 0 240.646 4557.43 3.0863 7.79773e+07 -4.49046e+07 936569 -793.291 5.67694 76.7508 0.05 
13799 1 -3.51206 -0.790343 7.01347 0 0 0 158.514 198.159 -14.1127 6.88418e+07 7.07054e+07 -6.05959e+06 -2507.34 2683.9 541.361 0.05 
3503 1 -3.40124 -0.804619 7.03286 0 0 0 1.76261 5390.44 2.90084 820553 -2.92085e+07 2.10069e+06 -696.921 -7.9414 33.4367 0.05 
5328 1 -2.50462 -0.815286 7.04221 0 0 0 24.2509 485.001 0.0525005 -1.11341 2.59499e+07 -39.8079 -3485.87 693.454 6699.73 0.05 
2998 1 -2.28318 -0.832753 7.03487 0 0 0 1.3063 3299.5 -0.329081 1.79734e+06 3.86721e+07 -620235 -770.678 -12.8344 466.335 0.05 
8924 1 -2.1772 -0.835532 7.04028 0 0 0 0.766619 918.036 0.0312631 -0.477311 8.28603e+07 -39.8079 100.661 -4.72561 5943.4 0.05 
3847 1 -1.89517 -0.804004 7.02186 0 0 0 0.728655 508.804 -1.22728 -0.250968 1.43433e+07 -39.8079 -4282.22 -6.35898 3437.52 0.05 
11919 1 -1.71688 -0.837477 7.03998 0 0 0 144.234 817.876 -0.293545 180178 9.18372e+07 -511048 4366.23 4636.4 6638.19 0.05 
7511 1 -1.59549 -0.823638 7.05581 0 0 0 8.00437 715.159 0.0338346 -0.138671 4.12198e+07 -39.8079 1055.26 206.745 -73.7087 0.05 
1959 1 -1.47951 -0.804441 7.02248 0 0 0 92.802 5470.18 -328.397 -1.36174e+06 -7.43888e+06 937124 -6624.22 2638.39 -365.447 0.05 
7214 1 -1.37462 -0.827289 7.04019 0 0 0 52.8846 698.026 0.118489 -0.0940199 5.08102e+07 -39.8079 1205.58 1709.53 -4107.52 0.05 
2483 1 -1.23788 -0.800471 7.02338 0 0 0 -1.38659 401.185 -2.04267 0 1.19964e+07 -39.8079 -1117.79 1.53888 991.24 0.05 
1945 1 -0.921264 -0.803808 7.05846 0 0 0 -2.06379 5433.07 2.90278 -849788 -5.04416e+07 1.81485e+06 -1708.83 29.9237 591.095 0.05 
4837 1 -3.59041 -0.778632 7.04034 0 0 0 2069.23 171.308 3.56541 1.14215e+08 4.40212e+07 3.66023e+06 -2694.56 7228.15 3298.08 0.05 
10435 1 -3.4018 -0.782485 7.02075 0 0 0 91.027 151.28 -2.71153 -730083 4.90703e+07 -2.10077e+06 -696.04 3598.57 -1847.23 0.05 
1442 1 -3.17565 -0.759032 7.02102 0 0 0 135.004 294.26 -1.89149 716652 3.53095e+06 -209437 -552.884 5211.84 -6574.73 0.05 
9943 1 -2.93212 -0.771481 7.01532 0 0 0 75.5256 466.344 1.74815 -35638 1.22888e+07 -378917 -1920.73 3122.34 -1258.51 0.05 
3695 1 -2.81621 -0.785106 7.05283 0 0 0 193.054 295.305 0.648048 -1.07244e+06 1.59724e+07 999960 1171.21 4318.52 -9813.99 0.05 
2986 1 -2.33944 -0.77426 7.02392 0 0 0 115.484 42.2529 0.246767 -1.35223e+06 2.18177e+07 346040 -140.527 4361.31 -1481.69 0.05 
10357 1 -2.12016 -0.754024 7.01963 0 0 0 178.944 341.47 -0.149769 -0.416079 1.47914e+06 -39.8079 688.288 4857.42 -5131.27 0.05 
5135 1 -1.13206 -0.748257 7.0594 0 0 0 9.37347 70.4732 -0.957793 982707 3.62979e+07 -1.11998e+06 -102.531 -192.613 0.163881 0.05 
7950 1 -0.983715 -0.779405 7.02039 0 0 0 -0.464735 304.275 -1.25479 -488579 3.4383e+07 -619344 -870.284 26.2342 -4768.42 0.05 
8455 1 -0.880179 -0.759997 7.02995 0 0 0 2.58359 61.4668 -1.7155 1.33837e+06 3.65473e+07 -1.19563e+06 -726.029 3.46992 -1157.06 0.05 
14035 1 -0.502845 -0.768937 7.06087 0 0 0 3.10355 273.913 -280.451 -1.97378e+06 6.74866e+07 -599264 7455.79 2633.06 -3150.66 0.05 
3099 1 -0.402942 -0.763657 7.03162 0 0 0 0.0612363 365.845 -91.768 1.6488e+06 6.95121e+07 1.14124e+06 -1668.67 -3538.94 2452.28 0.05 
7914 1 -0.276865 -0.74467 7.01916 0 0 0 0.218311 570.803 -0.696742 0 1.01826e+06 -39.8079 -3601.38 20.2434 2843.57 0.05 
9896 1 -3.06954 -0.703305 7.01044 0 0 0 313.728 202.262 0.00378358 42.3932 226644 -39.8079 -6069.4 2046.89 -3029.41 0.05 
3621 1 -2.66555 -0.728491 7.01338 0 0 0 279.067 433.518 0.0169374 -1.63569 550687 -39.8079 -4624.46 4286.01 -7417.4 0.05 
8987 1 -2.22148 -0.73127 7.04798 0 0 0 388.468 33.2242 -0.302416 -0.532347 610401 -39.8079 481.978 3582.12 -2830.72 0.05 
8822 1 -1.96389 -0.707217 7.04468 0 0 0 304.286 355.092 -0.511353 1.93719e+08 8.04686e+07 -6.25215e+06 53.0795 -1110.42 -9826.22 0.05 
12201 1 -1.5925 -0.693576 7.01804 0 0 0 291.189 378.234 0.054117 -0.13791 164079 -39.8079 -5824.46 -1008.45 -5693.17 0.05 
5056 1 -1.49072 -0.713301 7.04677 0 0 0 204.128 182.495 -100.444 1.36174e+06 2.24255e+07 -937204 3724.86 -3428.14 -11355.1 0.05 
6037 1 -0.538634 -0.704126 7.03716 0 0 0 -1.80824 11155.6 -10.9878 -701549 -2.19303e+08 1.90228e+06 -2707.7 318.397 -3576.01 0.05 
5416 1 -0.404259 -0.684453 7.05937 0 0 0 3.57048 12279.2 4.15278 944144 -1.97971e+08 -788721 -4234.16 14.8956 7213.92 0.05 
13416 1 -0.0535007 -0.705612 7.01741 0 0 0 0.512183 208.728 -0.347359 0 245064 -39.8079 -3621.2 0.0576502 -5308.31 0.05 
5834 1 -3.55161 -0.660376 7.01345 0 0 0 414.178 0.30782 0.125074 1.27047e+07 58549.9 -39.8079 -0.0222797 -488.626 187.09 0.05 
13018 1 -2.96584 -0.647266 7.03241 0 0 0 314.408 307.976 0.443676 1.10414e+07 -3.2733e+08 2.30078e+06 2993.84 -3256.89 860.152 0.05 
10142 1 -2.86453 -0.651539 7.0407 0 0 0 154.876 14138.2 -5.42137 356485 -1.01293e+08 -3.25423e+06 2266.26 4341.47 -3732.89 0.05 
9436 1 -2.7439 -0.659429 7.01093 0 0 0 342.696 302.842 -0.112382 -1.79871 56939 -39.8079 -706.719 -64.1326 3947.85 0.05 
1637 1 -2.05784 -0.663328 7.02217 0 0 0 330.595 444.904 0.0450074 -0.359657 63904.7 -39.8079 -2667.42 -1765.54 -2225.29 0.05 
3779 1 -1.79896 -0.671815 7.04411 0 0 0 289.394 171.261 2.30372 393437 1.13374e+08 4.46544e+06 -2836.74 -4528.01 -1484.71 0.05 
8682 1 -1.38864 -0.680128 7.04812 0 0 0 372.724 408.047 0.59102 214670 3.58011e+07 -176801 914.299 -1931.11 1622.07 0.05 
12115 1 -1.23075 -0.65964 7.03041 0 0 0 253.321 13660.8 0.721927 1.61152e+07 -7.16111e+08 1.6788e+07 1330.63 -2376.07 -5207.28 0.05 
275 1 -1.2155 -0.649147 7.04165 0 0 0 419.743 202.34 4.95629 1.58231e+07 -3.71877e+08 1.86757e+07 -3550.43 -429.44 -1066.94 0.05 
10520 1 -1.02945 -0.674127 7.02697 0 0 0 318.279 330.43 0.214916 0 88591.7 -39.8079 1152.77 -2393.44 -3672.98 0.05 
6423 1 -0.930398 -0.656091 7.04164 0 0 0 296.46 0.207249 0.121507 0 51636 -39.8079 -0.798098 -4328.2 816.171 0.05 
73 1 -0.76448 -0.654609 7.04113 0 0 0 243.072 541.054 3.05196 1.01208e+09 -1.11376e+07 -5.16422e+07 -2836.43 -3523.15 452.793 0.05 
12790 1 -0.710554 -0.661905 7.01031 0 0 0 153054 -43.4292 -2.97542 -2.57047e+09 2.92803e+07 1.77963e+06 -569.406 -88584 -4408.5 0.05 
2585 1 -0.643651 -0.673109 7.04486 0 0 0 31.2553 13.3886 0.122143 9.12067e+08 -4.84496e+08 6.90983e+07 1286.2 -467.669 -5590.89 0.05 
6401 1 -0.453351 -0.658926 7.02515 0 0 0 -3.12924 73.9026 -2.35904 -1.40029e+06 1.11929e+08 -2.50241e+06 -1158.52 -1.10574 1481.24 0.05 
3121 1 -0.274631 -0.644732 7.05734 0 0 0 -0.165075 628.24 0.162884 0 37277 -39.8079 1662.33 -5.51148 3248.35 0.05 
2309 1 -3.25067 -0.607267 7.02257 0 0 0 452.555 148.606 0.687221 -4.53939e+06 1.17244e+08 -114341 -95.5561 49.3277 2336.37 0.05 
7814 1 -3.21646 -0.604873 7.0236 0 0 0 16.7517 16540.4 -1.65068 7.3941e+06 -1.94234e+08 2.69959e+06 7410.26 22.9721 3236.19 0.05 
7075 1 -3.11604 -0.59994 7.02204 0 0 0 459.032 31.3826 1.36436 -1.41439e+06 -4.77428e+08 378494 -3727.33 375.324 294.052 0.05 
5196 1 -3.04846 -0.603951 7.02739 0 0 0 10.806 -79114.5 1.28335 1.08802e+07 1.24286e+09 -4.1023e+06 -14655.1 11.7471 2153.54 0.05 
13928 1 -2.65573 -0.62477 7.06046 0 0 0 338.574 553.91 -0.773142 -1.60484 21536.7 -39.8079 -1114.77 -6851.63 -2235.9 0.05 
2167 1 -0.207717 -0.582388 7.01314 0 0 0 -1.19567 17811.7 -2.19911 6.84296e+06 -2.28714e+08 3.28932e+06 8114.15 26.0449 3109.51 0.05 
12245 1 -0.178446 -0.623257 7.03065 0 0 0 2.42611 364.911 3.40516 780706 1.99482e+08 -1.88737e+06 93.2461 9.40616 1986.81 0.05 
2360 1 -3.53712 -0.529112 7.0533 0 0 0 403.796 0.702421 -0.368758 3.21894e+07 -321315 -486935 -22.2346 -1342.01 1668.47 0.05 
10319 1 -2.99796 -0.541569 7.01418 0 0 0 318.03 121.235 -0.612358 -2.08594e+07 -4.38347e+08 1.81267e+06 643.451 3249.57 8779.45 0.05 
7846 1 -2.60775 -0.536473 7.01788 0 0 0 319.059 265.54 -0.716766 -1.44493 2556.34 -39.8079 -5692.04 2710.59 822.998 0.05 
1727 1 -2.15463 -0.571553 7.03808 0 0 0 383.365 350.991 0.188908 -0.451867 5668.62 -39.8079 408.156 -1263.91 3062.05 0.05 
7329 1 -1.91999 -0.533758 7.02994 0 0 0 325.531 0.457131 -0.155468 -0.26464 2409.16 -39.8079 -0.0363305 920.704 2427.58 0.05 
3581 1 -1.74572 -0.535436 7.0142 0 0 0 312.678 151.362 -214.651 -0.184757 2498.96 -39.8079 -6170.88 7921.41 7378.29 0.05 
6413 1 -1.57283 -0.575532 7.03242 0 0 0 406.424 316.614 -191.639 -306868 -120126 973414 -9287.43 -2676.78 1686.18 0.05 
3168 1 -1.24974 -0.528738 7.02527 0 0 0 314.544 -300.705 0.424855 -6.98491e+06 -4.11563e+08 -1.55285e+07 -2103.99 1605.84 5564.95 0.05 
5085 1 -1.08915 -0.571347 7.03986 0 0 0 419.727 287.204 -0.135145 0 5641.21 -39.8079 877.402 249.893 2538.86 0.05 
13107 1 -0.98289 -0.547202 7.05849 0 0 0 377.787 184.765 0.13158 0 3241.49 -39.8079 3525.6 -492.106 -4895.88 0.05 
4297 1 -0.483196 -0.548462 7.03585 0 0 0 163333 309.565 1.85053 -1.24794e+09 -5.85903e+07 -819421 -5951.3 -32599.5 27558.9 0.05 
7659 1 -0.467134 -0.527218 7.03559 0 0 0 129.476 4.83262 0.5343 1.24794e+09 5.85957e+07 819342 -6.33274 34.0993 1262.58 0.05 
6036 1 -0.105739 -0.571454 7.05307 0 0 0 -0.813102 18190.8 0.678818 -5.65103e+06 -2.81929e+08 3.79965e+06 2588.21 2.67732 4035.81 0.05 
6838 1 -3.41017 -0.520398 7.03048 0 0 0 307.69 10.3517 -0.0134556 58199.1 1807.52 -39.8079 -505.103 1101.65 4358.96 0.05 
6081 1 -2.70537 -0.481067 7.05272 0 0 0 195.493 450.599 -0.607657 -1.7438 806.589 -39.8079 852.872 -1593.02 9119.86 0.05 
3432 1 -2.26368 -0.488158 7.0357 0 0 0 213.621 31.4557 -0.230185 -0.591908 929.232 -39.8079 -1494.27 19.3492 6206.72 0.05 
4904 1 -0.0610802 -0.512203 7.03365 0 0 0 0.974904 33.1582 -0.379803 3.60538e+06 1.07448e+08 -1.4296e+06 -308.497 0.992085 -705.578 0.05 
6908 1 -2.83236 -0.471287 7.0498 0 0 0 134.941 0.172905 -0.172869 -1.39648 665.26 -39.8079 8.03367 -931.077 5299.99 0.05 