ITEM: TIMESTEP
350000
ITEM: NUMBER OF ATOMS
14052
ITEM: BOX BOUNDS ff pp ff
-3.75 3.75
-1 1
0 10
ITEM: ATOMS id type x y z ix iy iz vx vy vz fx fy fz omegax omegay omegaz radius 
13821 1 -1.59504 -0.510071 3.85737 0 0 0 0.275183 105.579 -171857 -0.138557 1454.59 -39.8079 4511.3 3783.37 -2558.63 0.05 
9412 1 -2.15413 -0.351561 3.84894 0 0 0 1.89464 14.6514 -171840 -0.451316 75.1755 -39.8079 -9278.38 13846.1 5701.27 0.05 
10206 1 -3.22348 0.649889 3.89824 0 0 0 223.626 -338.46 -170107 693.9 -43163.8 -39.8079 5136.14 -10974 -8981.36 0.05 
13215 1 -0.227491 -0.0998457 3.94084 0 0 0 -0.415757 615.338 -169069 0 0.453222 -39.8079 56.5582 22216.6 -6775.57 0.05 
12795 1 -2.98298 -0.319261 3.95533 0 0 0 496.068 -76.1834 -168732 8.35802 43.0983 -39.8079 -10403.9 3184.62 3882.04 0.05 
7183 1 -0.750532 -0.359396 4.02589 0 0 0 -0.775491 310.248 -166448 0 86.1156 -39.8079 -12783.2 -9045.73 -4366.71 0.05 
4371 1 -1.71272 0.397105 4.00674 0 0 0 0.978136 -152.086 -167037 -0.173175 -167.171 -39.8079 17513.9 -2599.57 17.1685 0.05 
11397 1 -0.430413 0.754701 4.01738 0 0 0 0.381765 52.1087 -166689 0 -1.52049e+06 -39.8079 9019.46 16450.5 -5556.43 0.05 
12202 1 -1.69756 -0.492731 4.10073 0 0 0 179.822 82.5023 -164076 -0.168155 1018.92 -39.8079 9591.61 11592.2 3632.57 0.05 
10576 1 -3.26803 0.234348 4.10025 0 0 0 288.583 -171.664 -164748 1718.63 -9.74923 -39.8079 -34639.3 13625.1 1203.32 0.05 
13017 1 -1.48729 -0.79084 4.13852 0 0 0 0.909248 587.897 -163153 -0.114106 7.48679e+06 -39.8079 -24189.3 -7438.98 3021.17 0.05 
8448 1 -0.483474 -0.797317 4.24717 0 0 0 0.508839 358.193 -159922 0 1.02551e+07 -39.8079 -5624.8 -12451.1 599.922 0.05 
13635 1 -1.11897 0.674605 4.25985 0 0 0 1.12983 -248.998 -159669 0 -89904.9 -39.8079 23219.4 1106.72 3265.97 0.05 
11202 1 -0.849297 0.252262 4.27575 0 0 0 123.447 238.648 -159224 0 -13.4593 -39.8079 -9912.06 27218.7 2176.75 0.05 
11049 1 -2.64812 -0.218514 4.3275 0 0 0 133.741 -5.57848 -157302 -1.58028 7.27558 -39.8079 18.8217 -15907.8 3665.63 0.05 
9405 1 -1.49307 0.137458 4.33545 0 0 0 152.075 67.4589 -157450 -0.115274 -1.30593 -39.8079 -6349.9 -4238.04 -3403.14 0.05 
12319 1 -0.0529346 0.161476 4.33631 0 0 0 -0.207636 85.6351 -158386 0 -2.29446 -39.8079 -4133.99 98548.8 -3973.59 0.05 
11924 1 -1.4842 -0.0388663 4.38889 0 0 0 0.0425369 132709 -156145 -0.113487 0.024354 -39.8079 -713.479 -4098.91 8296.87 0.05 
13254 1 -1.96443 0.529399 4.39005 0 0 0 -0.150737 27.6396 -155765 -0.291485 -2191.79 -39.8079 -7367.64 -23625.4 3565.41 0.05 
12761 1 -0.541564 0.528703 4.37606 0 0 0 0.273628 -327.093 -156298 0 -2159.14 -39.8079 16792.2 -12762.6 -880.602 0.05 
11242 1 -1.16453 0.577662 4.42571 0 0 0 -0.0422323 -200.722 -155175 0 -6552.46 -39.8079 11388 -13157.8 4496.39 0.05 
8681 1 -0.510989 0.818201 4.46346 0 0 0 -0.925695 -796.858 -153783 0 -3.04242e+07 -39.8079 -50699.1 11980.1 1235.89 0.05 
12566 1 -1.89824 0.271343 4.48508 0 0 0 77.5525 -317.074 -153211 -0.252609 -18.8386 -39.8079 -16700 2013.15 5382.68 0.05 
12900 1 -3.48657 0.798732 4.49207 0 0 0 311.38 -536.458 -151839 745082 -1.09989e+07 -39.8079 -23920.6 40304.7 -3110.64 0.05 
12455 1 -2.35562 -0.307396 4.63732 0 0 0 1.67213 168.304 -148866 -0.750408 35.1495 -39.8079 7925.15 12355.5 -4376.61 0.05 
4032 1 -1.64333 0.245897 4.63351 0 0 0 0.993796 310.862 -148998 -0.151617 -12.0129 -39.8079 9126.22 20299.1 3259.07 0.05 
7677 1 -1.36622 0.536071 4.63924 0 0 0 -0.253297 -136.763 -149126 -0.0927064 -2533.93 -39.8079 -7104.88 7447.28 662.835 0.05 
11415 1 -0.876043 0.819045 4.6575 0 0 0 238.893 -953.86 -148344 0 -3.18743e+07 -39.8079 -96357.5 -10605.3 1405.99 0.05 
8255 1 -3.29224 -0.428288 4.7042 0 0 0 175.979 68.4657 -146740 2901.72 294.277 -39.8079 -29492.7 -11449 4606.84 0.05 
10609 1 -1.77684 -0.322126 4.679 0 0 0 1.51252 -165.219 -147349 -0.196571 45.2728 -39.8079 27672.1 -1753.56 3676.46 0.05 
13781 1 -2.52459 -0.000978241 4.79437 0 0 0 31.3856 1.24119 -144580 -1.17328 3.81946e-07 -39.8079 5489.15 -18032.1 -657.816 0.05 
6492 1 -1.69729 0.757013 4.82762 0 0 0 110.525 -199.984 -142339 -0.168067 -1.67155e+06 -39.8079 16696.9 -12891.1 2389.16 0.05 
12363 1 -3.14909 -0.413416 4.8639 0 0 0 355.596 239.597 -142172 172.458 224.193 -39.8079 8225.56 -3555.31 5490.18 0.05 
7639 1 -0.954671 -0.191999 4.86751 0 0 0 -1.0914 165.7 -141912 0 4.35767 -39.8079 15457.6 21674 1082.4 0.05 
9165 1 -2.43631 -0.769067 4.89003 0 0 0 69.1415 61.7209 -141097 -0.928898 2.78076e+06 -39.8079 -44682.4 13410.2 -3042.24 0.05 
6487 1 -3.3558 -0.324008 4.88628 0 0 0 396.837 223.839 -141599 13120.1 46.7603 -39.8079 12836.7 -22377.9 -7704.65 0.05 
13278 1 -2.04316 0.805902 4.92483 0 0 0 147.39 -1189.23 -140221 -0.347747 -1.58093e+07 -39.8079 -69159.6 7820.31 8625.9 0.05 
11852 1 -2.18402 -0.536885 4.96998 0 0 0 209.781 264.787 -138928 -0.485327 2579.47 -39.8079 11897.3 19456.2 984.161 0.05 
10766 1 -2.77468 0.0201741 4.96586 0 0 0 274.323 -645.343 -139270 -1.77471 -0.00336497 -39.8079 -41199.7 -4787.51 941.861 0.05 
12207 1 -0.638596 0.309026 4.98231 0 0 0 -0.261889 -17318 -139063 0 -36.1489 -39.8079 -20262.1 -18969.9 601.985 0.05 
3777 1 -2.7376 -0.741174 5.00817 0 0 0 477.102 -46658 -137498 -1.79484 888753 -39.8079 2511.96 -4716.12 -2155.11 0.05 
11713 1 -2.15232 -0.254869 5.02047 0 0 0 187.819 -811.193 -137639 -0.449359 14.0974 -39.8079 12852.1 -8865.71 6541.5 0.05 
9454 1 -2.46705 -0.120715 5.02303 0 0 0 23.8613 148.175 -137789 -1.00802 0.842889 -39.8079 8704.99 5585.32 2765.96 0.05 
3037 1 -0.65577 0.030673 5.10179 0 0 0 51.9572 -3.79083 -135437 0 -0.0118962 -39.8079 -3964.81 -4136.05 3439.81 0.05 
9289 1 -0.142845 0.318108 5.12277 0 0 0 1.1644 -131.287 -134108 0 -42.2529 -39.8079 -3624.17 -6460.88 4435.75 0.05 
10622 1 -2.53073 -0.515508 5.17009 0 0 0 149.526 3.09433 -132670 -1.19218 1629.99 -39.8079 -19546.9 30099.5 -1973.68 0.05 
9291 1 -0.582909 -0.164262 5.20281 0 0 0 0.867404 -55.9492 -132285 0 2.44003 -39.8079 9808.39 -21308.2 -682.456 0.05 
1298 1 -2.31958 -0.553015 5.26576 0 0 0 79.3297 274.923 -130642 -0.683117 3694.53 -39.8079 5833.24 8835.42 -5717.94 0.05 
8417 1 -2.5296 -0.440549 5.27618 0 0 0 9.37303 66461.2 -129879 -1.18868 369.578 -39.8079 7807.19 -6700.52 1209.71 0.05 
6601 1 -3.06632 -0.239926 5.26435 0 0 0 222.059 156.804 -130485 40.0546 10.7883 -39.8079 1511.83 7088.19 3380.35 0.05 
11208 1 -0.922925 0.316713 5.38011 0 0 0 -0.489781 -313.998 -127289 0 -41.2529 -39.8079 -18203.6 16205.6 -2992.52 0.05 
10028 1 -3.44492 0.694574 5.36879 0 0 0 386.795 -271.641 -126502 171481 -169525 -39.8079 44558.4 21410.1 2807.04 0.05 
11214 1 -1.90851 0.808375 5.41321 0 0 0 194.512 -963.929 -125393 -0.258207 -1.79724e+07 -39.8079 -70915.1 587.244 -4847.1 0.05 
2112 1 -1.37409 -0.397062 5.4706 0 0 0 111.049 -54.5443 -124158 -0.0939358 167.043 -39.8079 1233.91 1872.77 1305.06 0.05 
206 1 -2.29078 -0.760529 5.51132 0 0 0 83.4541 67.8734 -122356 -0.634256 1.93393e+06 -39.8079 -18401.5 -18084.4 1061.65 0.05 
13478 1 -2.78923 0.407726 5.5528 0 0 0 449.637 -45.636 -121456 -1.73026 -202.264 -39.8079 -10129.5 -26863.5 2476.92 0.05 
8660 1 -2.89665 -0.780254 5.59863 0 0 0 534.999 445.982 -119849 0.202822 4.56939e+06 -39.8079 14477.5 -14760.4 -8301.81 0.05 
9911 1 -2.30408 -0.191851 5.58671 0 0 0 90.3066 -152.24 -121287 -0.656302 4.34478 -39.8079 -9458.35 6156.14 792.257 0.05 
4730 1 -2.34856 0.571149 5.56587 0 0 0 334.723 -235.062 -121644 -0.736651 -5614.94 -39.8079 20948.1 -7961.38 -4366.16 0.05 
12559 1 -2.50595 -0.772173 5.61024 0 0 0 32464 44.154 -119774 -1.11733 3.184e+06 -39.8079 -43723.8 -25383.5 -13862.8 0.05 
13047 1 -1.4714 -0.504449 5.65645 0 0 0 2.72496 121.489 -118930 -0.11097 1294.5 -39.8079 -5261.26 -2525.86 1985.84 0.05 
4350 1 -1.93946 -0.593187 5.6787 0 0 0 93.4383 630.477 -117650 -0.276013 9556.7 -39.8079 -12400.1 -42919.9 4136.68 0.05 
3659 1 -1.15943 -0.609572 5.69795 0 0 0 5.16334 430.736 -117801 0 14451.9 -39.8079 2733.13 11103 -565.496 0.05 
9947 1 -0.484494 -0.208339 5.68967 0 0 0 0.987894 -342.507 -117774 0 5.99919 -39.8079 -10103.5 12433.8 10082.9 0.05 
7680 1 -0.230754 0.660149 5.67909 0 0 0 -0.0890154 3.39553 -117826 0 -58160 -39.8079 -7670.81 -7350.76 -6526.56 0.05 
12040 1 -3.19123 0.0931571 5.78931 0 0 0 471.713 -356.738 -114849 373.679 -0.362887 -39.8079 15089.1 17082 -86.3417 0.05 
11268 1 -1.93232 -0.19804 5.81814 0 0 0 1.76208 -81.2142 -114222 -0.271771 4.91205 -39.8079 29864.8 -3618.73 -685.673 0.05 
7591 1 -0.677 0.715286 5.84094 0 0 0 -0.00815119 68.1147 -113236 0 -342380 -39.8079 14341 -7770.88 7549.9 0.05 
12192 1 -0.206437 0.179584 5.88746 0 0 0 2.37786 -93.6073 -112466 0 -3.38395 -39.8079 19408.4 -524.192 3250.39 0.05 
13500 1 -0.507369 0.439544 5.91741 0 0 0 1.06112 -118915 -111014 0 -362.693 -39.8079 38161.3 9002.19 3337.92 0.05 
13249 1 -1.23594 -0.751934 6.01171 0 0 0 199.43 543.67 -107671 0 1.35909e+06 -39.8079 -27288.1 23601.4 -625.568 0.05 
9169 1 -1.88544 -0.223706 5.99288 0 0 0 34.9853 72468.5 -109754 -0.245845 8.01575 -39.8079 18361.9 -32131.1 19347.1 0.05 
8359 1 -2.18572 0.0560698 5.97298 0 0 0 77.7597 -401.521 -109586 -0.487356 -0.0744432 -39.8079 -5819.2 -7486.86 -11905.4 0.05 
8437 1 -3.41734 0.446053 6.0129 0 0 0 585.096 38137.3 -108235 72059.6 -409.86 -39.8079 19327.7 -34445.8 -4832.02 0.05 
13159 1 -3.55665 0.487168 6.01928 0 0 0 896.863 -477.74 -107355 1.64296e+07 -910.963 -39.8079 -17199.1 -37408.3 -2407.07 0.05 
10939 1 -2.73929 0.641258 5.97597 0 0 0 188.799 39.8587 -108479 -1.79611 -33809.8 -39.8079 3906.56 21481.6 603.853 0.05 
12032 1 -2.87751 -0.334292 6.11181 0 0 0 290.307 -84.2954 -104733 -0.482679 55.8056 -39.8079 4790.94 -28224.8 3147.42 0.05 
6590 1 -3.55909 -0.131646 6.12115 0 0 0 722.885 131.805 -105312 1.8654e+07 1.12733 -39.8079 6267.37 -36918.6 8012.27 0.05 
9303 1 -0.349091 -0.119983 6.12191 0 0 0 0.589332 122.437 -105137 0 0.826044 -39.8079 -13928.1 -5148.38 933.195 0.05 
12315 1 -3.41945 0.442132 6.11766 0 0 0 198.507 122.554 -105651 76812.9 -380.709 -39.8079 29274.3 -39488.5 7802.64 0.05 
13964 1 -0.207478 -0.240917 6.1249 0 0 0 -1.73267 -435.101 -104936 0 10.9832 -39.8079 -4294.31 -12211.4 -775.338 0.05 
1859 1 -2.69978 0.263248 6.12921 0 0 0 110.629 -566.061 -104579 -1.73088 -16.3465 -39.8079 -5784.6 4348.33 5790.38 0.05 
6890 1 -2.16754 0.31276 6.1717 0 0 0 130.388 247.473 -103525 -0.466213 -38.5444 -39.8079 2141.05 14005.6 -3014.62 0.05 
4674 1 -1.60004 0.565701 6.15891 0 0 0 169.282 83.836 -103803 -0.139842 -4943 -39.8079 24967.3 -9431.76 9902.63 0.05 
271 1 -3.47361 -0.160199 6.1939 0 0 0 266.554 194.947 -103281 460710 2.23008 -39.8079 -6456.94 40297.8 -4579.49 0.05 
13236 1 -3.13855 -0.0270738 6.19114 0 0 0 271.394 -26401 -102743 142.804 0.00816197 -39.8079 1781.1 -1637.86 4576.29 0.05 
11483 1 -1.88839 -0.732616 6.24637 0 0 0 4.93022 4887.05 -101314 -0.247387 641857 -39.8079 65648.3 -5559.14 -2364.46 0.05 
13162 1 -0.413825 0.042588 6.31896 0 0 0 109.41 261.21 -98328.8 0 -0.0321482 -39.8079 336.558 -9142.93 2716.89 0.05 
7042 1 -1.69049 0.459789 6.28266 0 0 0 223.827 -12654.7 -100089 -0.165877 -532.356 -39.8079 -34206.3 -5516.62 3736.18 0.05 
3372 1 -1.59226 -0.017496 6.35426 0 0 0 4.82462 104.867 -98057.9 -0.137847 0.00219247 -39.8079 -23909.3 -10681.9 -2635.59 0.05 
8516 1 -0.701542 0.266121 6.37087 0 0 0 1.42313 -60.5683 -97581.6 0 -17.1926 -39.8079 2073.26 9071.94 8287.91 0.05 
3963 1 -0.262179 0.567565 6.365 0 0 0 2.44269 221.955 -97608.4 0 -5162.48 -39.8079 -5048.29 -19173.1 -6525.2 0.05 
10960 1 -1.21755 0.787376 6.3689 0 0 0 595.398 -3062.32 -97761.7 0 -6.35262e+06 -39.8079 -90095.7 -10669.7 9763.8 0.05 
10345 1 -3.0917 -0.719246 6.39207 0 0 0 128.2 5019.37 -96029.9 62.5364 393904 -39.8079 52479.7 4063.3 -1435.06 0.05 
13505 1 -0.163734 -0.297522 6.43308 0 0 0 153.17 69735 -96226 0 29.657 -39.8079 23766.4 5473.26 -5383.39 0.05 
13612 1 -1.5184 -0.17821 6.43236 0 0 0 62.0346 -322.345 -95748.3 -0.120571 3.28849 -39.8079 -15597.4 371.408 3250.97 0.05 
4198 1 -1.4855 -0.045275 6.41968 0 0 0 89.7897 67.2626 -96374.1 -0.113748 0.0387253 -39.8079 -21743.3 -3519.48 1061.91 0.05 
11890 1 -2.84264 0.139102 6.41862 0 0 0 451.004 -143.809 -96205.9 -1.2535 -1.36024 -39.8079 22358.7 -25560.3 3189.61 0.05 
10867 1 -3.07023 0.793443 6.42661 0 0 0 400.747 -484.677 -95278.5 42.9086 -8.48605e+06 -39.8079 -14545.6 26999.2 991.261 0.05 
13274 1 -1.34304 -0.796444 6.47207 0 0 0 153.741 201.244 -94381.9 -0.0891975 9.82347e+06 -39.8079 2351.61 -12550.2 -462.172 0.05 
12344 1 -0.104793 -0.229347 6.51593 0 0 0 -0.974427 -381.27 -92491.4 0 8.89634 -39.8079 -1449.49 -3011.39 12858.7 0.05 
12661 1 -3.53781 0.282121 6.51344 0 0 0 613.916 -45.1973 -93168.8 6.48414e+06 -22.7264 -39.8079 15991.1 -5875.18 -3027.09 0.05 
9422 1 -1.45402 0.433286 6.49254 0 0 0 145.633 -279.522 -93780.3 -0.107662 -322.782 -39.8079 5125.03 2882.75 6268.6 0.05 
4108 1 -0.716744 -0.614231 6.55834 0 0 0 8.49039 343.121 -91544.4 0 16305 -39.8079 23231 11283.8 -603.078 0.05 
11228 1 -0.853409 0.674186 6.56611 0 0 0 212.248 -292.161 -91138.1 0 -88752 -39.8079 26710.5 22515 882.167 0.05 
10394 1 -1.9797 -0.805049 6.6221 0 0 0 455.702 894.4 -89839.8 -0.301474 1.51308e+07 -39.8079 48274.2 4032.71 470.026 0.05 
10294 1 -1.68155 -0.714659 6.60496 0 0 0 8.9747 -85.5943 -90196.4 -0.16305 334930 -39.8079 15261.7 -5016.74 -2015.43 0.05 
6232 1 -3.38438 -0.589993 6.63816 0 0 0 598.007 593.14 -89029.1 27943.8 8832.94 -39.8079 -27584.8 35113.1 -8282.62 0.05 
7105 1 -1.48494 -0.375769 6.59557 0 0 0 154.374 -258.265 -90828.2 -0.113636 114.606 -39.8079 15953.6 -388.134 9770.12 0.05 
3780 1 -0.874351 -0.0772088 6.61799 0 0 0 214.749 -236.551 -90065.6 0 0.200494 -39.8079 10985.2 15940 -3369.77 0.05 
8380 1 -0.566293 -0.683879 6.68763 0 0 0 156.055 461.877 -88010.4 0 120106 -39.8079 -75.1218 -1963.71 6907.18 0.05 
11247 1 -2.37109 -0.0791658 6.64354 0 0 0 281.584 -280.537 -89138.6 -0.781519 0.21686 -39.8079 20176.5 16917.6 2779.55 0.05 
11812 1 -2.01867 -0.410379 6.72612 0 0 0 8.26129 65.961 -86739.4 -0.328931 212.191 -39.8079 -10600.1 -24162.6 9882.96 0.05 
1210 1 -0.287027 0.251713 6.74051 0 0 0 0.254153 226.035 -86541 0 -13.3286 -39.8079 28407.2 -2975.74 -16011.4 0.05 
13755 1 -0.903056 -0.279241 6.76305 0 0 0 3.04535 472.909 -85593.1 0 21.618 -39.8079 -25575.7 30462.9 -6314.97 0.05 
9416 1 -3.559 0.0584344 6.77931 0 0 0 853.645 -10.5578 -85264.2 1.85716e+07 -0.0845155 -39.8079 -16972.8 -56184.6 4454.39 0.05 
4329 1 -2.28525 0.242611 6.76749 0 0 0 436.396 -111.317 -84885.3 -0.625329 -11.3239 -39.8079 -2387.67 -15375.5 689.759 0.05 
13282 1 -3.21877 0.441715 6.78552 0 0 0 370.897 -563.586 -84482.6 632.808 -377.746 -39.8079 20389 -43565.5 -11889.1 0.05 
11916 1 -1.86287 0.437956 6.7648 0 0 0 70.8084 -59.1583 -85731.7 -0.234449 -352.091 -39.8079 21488.1 5883.66 -749.099 0.05 
11567 1 -2.34691 0.663558 6.74432 0 0 0 176.814 -583.269 -85965.3 -0.73349 -64343.2 -39.8079 1786.99 -21168.7 -7103.01 0.05 
13012 1 -1.05391 -0.637777 6.80004 0 0 0 394.42 184.993 -84787.3 0 30687.5 -39.8079 21567.3 -6382.23 -849.642 0.05 
11564 1 -3.51627 0.38853 6.83929 0 0 0 317.623 85562.4 -82607.4 2.46495e+06 -143.524 -39.8079 261.991 23243.1 7058.2 0.05 
9961 1 -3.54211 -0.451558 6.898 0 0 0 475.648 185.324 -80410.8 7.9555e+06 454.871 -39.8079 31142.8 -24806.9 -9770.97 0.05 
12325 1 -2.51488 -0.290472 6.89218 0 0 0 567.319 149.826 -81643.2 -1.14385 26.2608 -39.8079 3195.34 13151 3670.74 0.05 
12952 1 -2.76296 -0.218576 6.89004 0 0 0 194.592 498.246 -81769.9 -1.79349 7.284 -39.8079 -5596.16 13792.8 -4217.11 0.05 
8433 1 -1.98886 -0.116138 6.8718 0 0 0 90.5099 -85.5952 -82741.8 -0.307673 0.741616 -39.8079 -27629.9 -1613.83 63.4766 0.05 
13957 1 -0.598616 -0.807323 6.90184 0 0 0 -0.438965 638.699 -81583.4 0 1.70146e+07 -39.8079 59375.1 20431 -1552.29 0.05 
3281 1 -1.80531 -0.500978 6.90857 0 0 0 79.8529 308.957 -80747.1 -0.208209 1205.28 -39.8079 26017.5 -1559.52 -5358.65 0.05 
14013 1 -3.30284 -0.819578 7.00186 0 0 0 3.02085 1572.12 0.895897 1.62652e+06 2.5501e+07 540330 -872.573 4.98272 3548.51 0.05 
196 1 -3.09803 -0.812485 7.00985 0 0 0 0.353954 2003.09 -169.433 158702 1.52412e+07 -44834 -11415.6 465.317 2178.74 0.05 
12327 1 -1.10087 -0.814996 7.00053 0 0 0 0.899479 712.601 1.27992 351440 2.27413e+07 -239466 -5565.34 60.2453 3931.76 0.05 
6695 1 -0.781353 -0.81854 7.00085 0 0 0 -0.158495 1023.08 -1.94118 0 3.09979e+07 -39.8079 -1105.73 -1.7622 291.429 0.05 
13221 1 -0.460268 -0.820924 6.99748 0 0 0 1.32547 1009.14 -268.738 281163 2.78935e+07 1.46007e+06 -9209.56 -3282.82 -623.899 0.05 
10082 1 -0.0747167 -0.796051 7.00157 0 0 0 3.88824 56070.2 -24.1038 112083 -6.05248e+08 1.04808e+07 -61624.7 -1128.45 -33207.1 0.05 
9943 1 -2.93012 -0.764385 7.00871 0 0 0 137.719 523.053 -561.463 -4.10769e+06 1.47302e+07 -1.26808e+06 -909.546 12502.8 -1854.65 0.05 
13855 1 -1.76204 -0.754757 7.00243 0 0 0 38.3558 283.328 -77.1868 -422069 5.01083e+06 1.55422e+06 -3253.9 3725.12 -5583.52 0.05 
12243 1 -0.703648 -0.748919 7.00106 0 0 0 69.0225 312.349 -172.53 9.77476e+06 3.39091e+07 -6.1348e+08 -5767.46 1157.01 -7796.04 0.05 
5927 1 -0.693445 -0.746745 6.99849 0 0 0 3.82332 4261.43 -78738.9 -9.77476e+06 -3.15998e+07 6.1348e+08 45860.7 -1235.59 2404.61 0.05 
11028 1 -0.585258 -0.764517 6.99972 0 0 0 -0.312534 244.865 -392.053 -119616 2.29962e+06 -668177 -3578.3 -583.173 4978.82 0.05 
5466 1 -0.115579 -0.781147 7.0056 0 0 0 -3.14763 317.036 -136.38 -1.01169e+07 4.03815e+08 -2.43852e+06 -10658.2 -3137.15 -7145.76 0.05 
13426 1 -3.28384 -0.733206 7.0083 0 0 0 229.738 181.586 0.162628 -1.39273e+06 7.64302e+06 -467974 -1158.18 3587.33 -108.919 0.05 
9896 1 -3.06457 -0.702075 7.00892 0 0 0 310.488 215.642 -235.093 38.8327 217448 -39.8079 -559.755 -954.382 -3468.77 0.05 
11386 1 -2.47975 -0.715703 7.00536 0 0 0 287.018 260.283 -266.441 1.83299e+07 -2.20926e+06 -4.95779e+08 1245.64 5705.85 -804.54 0.05 
11448 1 -3.35033 -0.659133 7.00482 0 0 0 340.048 24.3951 -159.389 -227427 2.75761e+07 -324373 -5520.31 -2006.07 -208.375 0.05 
9043 1 -2.27548 -0.662271 7.00112 0 0 0 336.617 0.6659 -4.94759 -0.60993 61927.7 -39.8079 234.082 1460.24 -132.83 0.05 
9387 1 -1.88345 -0.633067 6.99964 0 0 0 362.588 410.211 -203.909 -0.244814 26956.2 -39.8079 -10148.1 -3104.27 4983.85 0.05 
13214 1 -1.70054 -0.639753 7.00748 0 0 0 338.378 265.244 -157.108 -40153.2 269519 -183312 1732.1 2166.02 6029.47 0.05 
13698 1 -0.543569 -0.633679 6.99991 0 0 0 359.712 284.354 -237.989 0 27411.8 -39.8079 960.927 -101.899 2776.2 0.05 
3890 1 -3.45303 -0.60456 7.00359 0 0 0 445.062 1.90385 -183.16 224567 12712 -39.8079 -1069.1 10032.3 850.346 0.05 
14036 1 -2.37072 -0.626767 7.00011 0 0 0 394.27 174.697 -77.2312 -0.780765 22722 -39.8079 -5492.48 5111.42 -5038.93 0.05 
13329 1 -1.32709 -0.594065 7.00407 0 0 0 430.604 256.348 -0.00469214 -0.0868788 9766.85 -39.8079 -1941.81 4204.42 -4716.37 0.05 
5912 1 -0.354393 -0.597464 7.0015 0 0 0 424.27 404.87 0.0856344 0 10629.4 -39.8079 -7199.26 4451.28 2980.28 0.05 
11316 1 -2.81038 -0.55702 7.00164 0 0 0 287.696 210.021 -3.9319 -1.61173 4046.78 -39.8079 -3944.5 4585.05 -5793.04 0.05 
11479 1 -2.4571 -0.534176 7.00159 0 0 0 300.676 220.223 -309.763 1.41366e+06 226807 -115497 -3225.62 -6347.9 6496.46 0.05 
7434 1 -1.82337 -0.540923 7.0081 0 0 0 27.2243 10423.9 -243.474 2.26824e+06 -1.21123e+08 -644631 -508.923 2590.27 509.288 0.05 
12594 1 -0.812908 -0.54833 7.00678 0 0 0 302.559 284.298 -2.44856 220968 -269387 -598384 -111.993 4239.28 4669.07 0.05 
10556 1 -0.707664 -0.538981 7.009 0 0 0 307.405 342.065 -154.702 -777163 -647580 1.49542e+06 825.632 3100.97 -3360.93 0.05 
9307 1 -0.25853 -0.531853 7.00188 0 0 0 290.852 386.393 1.05981 0 2311.41 -39.8079 143.092 4711.92 1008.81 0.05 
12205 1 -3.1193 -0.503262 7.00336 0 0 0 227.689 80.5177 -78.6695 -557230 -156374 -922410 -4889.55 2278.83 4634.47 0.05 
7966 1 -2.02082 -0.518245 7.00053 0 0 0 271.21 261.386 -1.14499 -0.330531 1726.88 -39.8079 -5905.43 4623.78 3846.23 0.05 
10984 1 -1.50187 -0.505607 6.99937 0 0 0 246.305 24.663 -391.727 -375296 330535 122706 -228.227 4298.66 4514.13 0.05 
13525 1 -1.37099 -0.489156 7.00891 0 0 0 216.961 324.47 -54.7728 -1.1089e+06 -513888 -314318 -3505.53 1947.27 4162.16 0.05 
5517 1 -3.41386 -0.43381 6.99996 0 0 0 6950.73 -2.65551 -1.31087 -2.97666e+07 562758 131744 22.8999 -5484.23 4090.13 0.05 
6295 1 -3.22232 -0.471311 7.00624 0 0 0 127.987 325.597 -202 678.258 665.582 -39.8079 -7466.71 412.582 5921.79 0.05 
13644 1 -2.15733 -0.467697 6.99971 0 0 0 109.691 -54.4508 -158.164 -2.48057e+07 -9.08412e+08 -1.9223e+07 6349.94 -317.49 3195.19 0.05 
7418 1 -1.68383 -0.448937 6.99707 0 0 0 0.890269 278.433 -264.707 -0.163763 432.813 -39.8079 181.889 -2164.34 1394.11 0.05 
3483 1 -0.638731 -0.470729 7.00939 0 0 0 132.574 132.142 -3.40795 777163 650939 -1.4955e+06 -4425.78 1627.25 2246.79 0.05 
6072 1 -3.06717 -0.415192 7.00515 0 0 0 2.14731 84.0185 -101.037 5.59039e+06 -4.15618e+08 1.44785e+07 -1140.81 -4268.69 1403.5 0.05 
11339 1 -2.07379 -0.371282 7.00394 0 0 0 5.4684 -4.0448 -312.502 -3.53893e+07 -8.42381e+08 9.7125e+06 397.897 698.88 9617.09 0.05 
12492 1 -1.42302 -0.402055 7.00593 0 0 0 0.290928 283.972 -444.797 -0.10206 182.654 -39.8079 -5414.35 134.491 4899.75 0.05 
2539 1 -1.1615 -0.407825 7.0089 0 0 0 2.47382 36.2636 -0.671168 4.67021e+06 7.21053e+07 -1.53184e+06 -340.025 2.50221 -1117.85 0.05 
6261 1 -0.775937 -0.371022 6.9961 0 0 0 0.281684 336.86 -308.997 0 105.461 -39.8079 -2696.97 3748.79 -391.03 0.05 
11157 1 -0.354937 -0.410267 7.00165 0 0 0 -0.363799 253.589 -0.0298751 0 211.762 -39.8079 -2619.93 -3.18921 5536.32 0.05 
12860 1 -0.240009 -0.406773 7.00328 0 0 0 3.68107 348.577 -0.849125 0 198.819 -39.8079 1564.86 35.3633 -1080.75 0.05 
3298 1 -2.40061 -0.349802 7.00509 0 0 0 65.2207 251.122 -207.485 -0.844877 72.9224 -39.8079 -7407.33 4969.75 -8391.18 0.05 
13080 1 -1.62881 -0.32542 7.00379 0 0 0 197.143 174.826 -0.755928 -0.147533 47.9088 -39.8079 -1215.14 1294.46 -11191.4 0.05 
11927 1 -1.263 -0.327998 7.00105 0 0 0 190.333 0.469135 -2.48981 -0.0782853 50.0797 -39.8079 401.525 1441.54 -6199.21 0.05 
11626 1 -3.32835 -0.292569 7.00848 0 0 0 303.057 -0.212877 -265.272 6660.32 27.2289 -39.8079 4436.21 -2902.13 -4277.21 0.05 
246 1 -1.97489 -0.305708 7.00776 0 0 0 260.68 227.106 -0.510892 -0.298286 34.1444 -39.8079 -4401.5 1334.13 -10537.5 0.05 
13413 1 -0.751349 -0.27126 7.00796 0 0 0 2.41271 314.653 -73.4634 356761 873699 -30770.6 3109.3 88.4116 -3977.62 0.05 
13443 1 -2.62241 -0.233543 7.0034 0 0 0 313.393 306.637 -303.102 -1.4946 9.60715 -39.8079 -9285.9 -1777.63 1566.2 0.05 
4622 1 -1.81963 -0.213862 7.01012 0 0 0 247.524 -333.481 -1.4958 -0.21438 6.66485 -39.8079 1618.76 921.204 5554.22 0.05 
11055 1 -1.58494 -0.223227 7.00873 0 0 0 284.437 77.1732 -126 -0.136004 7.94476 -39.8079 -3994.61 5233.94 1669.15 0.05 
9031 1 -1.0746 -0.255165 7.00495 0 0 0 299.821 289.224 -0.165515 4.56537e+08 -3.43569e+06 -1.33385e+07 -2052.62 1626.33 5378.55 0.05 
8291 1 -0.433877 -0.221327 7.0092 0 0 0 0.357779 -56.5163 -242.45 -908594 -1.44526e+08 -2.41943e+06 -1535.72 -5951.31 2010.32 0.05 
10863 1 -3.49474 -0.176246 7.00268 0 0 0 4457.29 -6.8087 -474.854 -2.75762e+07 -1.40187e+06 -607282 -6557.17 392.824 5848.46 0.05 
11894 1 -3.17285 -0.176235 7.00153 0 0 0 96.5154 6.78994 -4.0316 22776.5 2.18633e+06 -1.16529e+06 -149.917 631.367 3881.71 0.05 
12122 1 -0.561738 -0.187392 6.99625 0 0 0 -0.486486 -280.04 -438.813 0 3.97172 -39.8079 1571.51 2273.6 -4490.38 0.05 
13658 1 -0.159219 -0.167328 6.99743 0 0 0 -0.118761 -114.733 -340.793 66004.2 45030.2 -69166.2 5126.49 -2453.79 -4775.86 0.05 
12127 1 -2.82774 -0.110386 7.00599 0 0 0 -0.655619 -17.2341 -79.0975 -8.46122e+06 4.23004e+06 -3.73257e+08 -1032.13 3245.01 -724.412 0.05 
7242 1 -1.01375 -0.157611 7.0052 0 0 0 2.72752 299.8 -398.523 -6.35735e+06 2.30065e+07 -4.8427e+08 -3616.57 4304.01 -3972.59 0.05 
7835 1 -1.02401 -0.110698 6.95198 0 0 0 265.249 327.809 -79975.2 6.35735e+06 -2.30065e+07 4.8427e+08 -17203.7 -28526.5 5091.47 0.05 
6839 1 -2.93559 -0.0589027 7.00059 0 0 0 96.0136 173.681 -1.67919 -3.14828e+07 9.22722e+08 8.72704e+06 -1055 3580.14 -4823.31 0.05 
9952 1 -1.27458 -0.0748685 7.00529 0 0 0 83.3652 -99.2059 -2.43446 9.25688e+06 5.89855e+08 4.63276e+06 552.649 3139.47 -2484.68 0.05 
13065 1 -0.446479 -0.0719254 7.00082 0 0 0 59.0448 -357.612 -2.76617 5.69546e+06 -1.68995e+08 4.23402e+06 4639.91 2359.85 -239.196 0.05 
11753 1 -2.68264 -0.00692161 7.00373 0 0 0 155.583 186.79 -135.694 2.24736e+06 -1.6726e+08 1.48485e+06 3282.84 1692.24 -497.918 0.05 
13038 1 -2.38259 -0.0443988 7.00905 0 0 0 162.555 62.6922 -292.056 -246894 194913 -199988 5961.53 7019.52 -3805.05 0.05 
9721 1 -2.21212 -0.0451665 7.00071 0 0 0 123.04 -81.2094 0.109598 -0.52011 0.0384437 -39.8079 1015.05 4811.97 -4938.27 0.05 
11177 1 -1.6577 -0.0157439 7.00055 0 0 0 141.164 260.834 -198.988 -1.12759e+06 -451135 -119186 -3995.7 11860.4 -1652.57 0.05 
1680 1 -1.26667 -0.0406221 7.0076 0 0 0 201.827 75776.2 -237.204 -9.25688e+06 -5.89855e+08 -4.63284e+06 -26841.2 4229.25 -9023.61 0.05 
10773 1 -0.272697 -0.0403865 7.00024 0 0 0 126.001 218.709 -136.875 0 0.0273611 -39.8079 4214.1 7977.33 -7016.14 0.05 
9438 1 -3.48621 0.0216535 7.00334 0 0 0 4669.43 -62.9758 -167.847 -6.63637e+07 -376817 345551 -1007.7 -5775.1 -1308.81 0.05 
1157 1 -1.05238 0.0220177 7.00782 0 0 0 114.807 66.0624 -1.09019 -1.67317e+07 9.11701e+08 -1.49811e+07 -387.13 4159.77 2812.22 0.05 
2032 1 -0.422474 0.0483372 6.99882 0 0 0 1.15672 -302.125 -333.327 0 -0.0472749 -39.8079 5672.86 1259.79 -199.496 0.05 
5587 1 -2.27434 0.0582344 7.00796 0 0 0 49.0185 -29.5788 -95.7817 -290307 -1.15487e+08 -5.3135e+06 912.576 5915.14 -1676.02 0.05 
4228 1 -2.03753 0.0881469 7.00415 0 0 0 119.611 -87.8968 -1.67867 -0.343307 -0.30436 -39.8079 1024.1 4523.61 4066.53 0.05 
5683 1 -1.90237 0.0566463 7.00453 0 0 0 27.7686 -107.906 -0.406467 1.00442e+06 -96732.4 21499.6 847.282 989.943 -5155.58 0.05 
9104 1 -0.713597 0.0638988 7.00908 0 0 0 90.8942 203.814 -194.695 -786135 171131 1.37905e+06 3370.77 8622.4 -9049.86 0.05 
11421 1 -3.48901 0.154497 7.00296 0 0 0 4590.41 65.1309 -181.438 -2.72695e+07 411778 -901952 -1606.08 -2433.51 2241.65 0.05 
1592 1 -1.4379 0.120037 7.00607 0 0 0 175.404 187.122 -225.648 -0.104703 -0.827275 -39.8079 -2198.6 63.7717 3932.12 0.05 
12444 1 -0.778859 0.149859 7.00644 0 0 0 8.13728 132814 -166.292 -3.62398e+07 -1.56407e+09 -1.27261e+07 32773.5 -2190.92 -17631.2 0.05 
8636 1 -0.448514 0.155631 7.00615 0 0 0 120.445 -413.901 -0.683943 0 -2.01184 -39.8079 4452.07 4363.29 3557.15 0.05 
3720 1 -0.321317 0.116615 7.00092 0 0 0 143.364 313.586 -1.43713 0 -0.751726 -39.8079 -3241.05 5521.36 1523.92 0.05 
11518 1 -3.24936 0.184329 7.00099 0 0 0 3.89389 -225.388 -229.923 1165.41 -3.73163 -39.8079 -2998.39 -2600.31 5901.16 0.05 
8568 1 -3.02179 0.186916 7.00797 0 0 0 1.94803 -311.359 -0.183423 17.9488 -3.93358 -39.8079 3638.85 36.8077 3548.09 0.05 
11832 1 -2.59853 0.18631 7.0021 0 0 0 4.56071 99.0722 -2.75078 -1.41366 -3.88547 -39.8079 -3087.6 77.6596 2571.15 0.05 
11037 1 -1.58228 0.169817 7.00112 0 0 0 73.8741 40.2106 -118.72 -0.135341 -2.75303 -39.8079 -1760.1 3769.79 26.9101 0.05 
5472 1 -1.06038 0.185044 7.00205 0 0 0 -0.480115 0.438 -0.479921 0 -3.78652 -39.8079 -36.5086 0.40685 1.12942 0.05 
13760 1 -3.5704 0.253024 6.99928 0 0 0 1552.1 -24.6353 -414.491 2.37623e+07 -771080 46454.6 4478.7 10091.8 4342.32 0.05 
10467 1 -3.39077 0.224263 7.00623 0 0 0 35.0827 -84.49 -1.13998 3.17332e+07 325913 -985531 871.208 1398.86 -3753.71 0.05 
3741 1 -1.25446 0.221917 7.0102 0 0 0 0.444528 -331.801 -0.221804 -0.0772223 -7.75348 -39.8079 -7.20369 -1.50365 1997.48 0.05 
13514 1 -0.206694 0.248262 7.00858 0 0 0 -0.268736 -109.382 -371.923 0 -12.5325 -39.8079 8674.87 -3883.3 1778.3 0.05 
6836 1 -0.737039 0.2751 7.00171 0 0 0 2.50014 -79.0712 -289.918 1.46054e+07 -7.49347e+08 -4.63651e+06 1894.87 4847.32 2419.38 0.05 
5181 1 -3.30925 0.343159 7.00141 0 0 0 340.185 -308.945 -1.13247 4258.24 -65.0173 -39.8079 3858.65 5791.69 -7304.2 0.05 
5457 1 -2.82849 0.322913 7.00434 0 0 0 219.112 0.624032 -65.9054 -1.44268 -45.889 -39.8079 -2818.02 6535.62 -4939.71 0.05 
4861 1 -2.721 0.35342 7.00852 0 0 0 390.331 172.774 -189.603 -1.77421 -77.6346 -39.8079 3405.24 3024.8 -9268.54 0.05 
9264 1 -2.5863 0.318422 7.01009 0 0 0 196.813 142.025 -3.09357 -1.37239 -42.482 -39.8079 -3512.97 5306.22 -2956.01 0.05 
7879 1 -2.4702 0.352655 7.01008 0 0 0 383.378 -216.561 -1.11916 -1.01648 -76.613 -39.8079 5422.11 5582.54 -9211.98 0.05 
13743 1 -2.13614 0.354632 6.99917 0 0 0 354.843 -305.044 -240.58 -0.432232 -79.2827 -39.8079 8948.85 2256.48 -7214.97 0.05 
12717 1 -1.96275 0.365557 7.00124 0 0 0 381.291 -34.1043 -2.96906 1.01896e+06 2.07481e+08 -3.00295e+06 887.961 5458.1 -2812.54 0.05 
5648 1 -1.35441 0.329177 7.00356 0 0 0 75.1475 -35.6586 -1.22022 -48601.5 1.06108e+06 -173406 3914.4 -37.6808 -11454.3 0.05 
13166 1 -1.14753 0.421048 7.00202 0 0 0 68229.6 219.59 -193.386 -1.01855e+09 -2.76098e+06 1.05234e+07 -1416.13 -80417.4 -31495.7 0.05 
11062 1 -0.771376 0.402071 7.00204 0 0 0 1.19251 -294.158 -1.09481 0 -182.706 -39.8079 2896.96 1.17909 3723.75 0.05 
12140 1 -0.470411 0.376998 7.00211 0 0 0 0.000543864 -290.737 -142.392 0 -117.106 -39.8079 10358.1 -2577.21 -2300.36 0.05 
12270 1 -0.206459 0.379818 7.00969 0 0 0 -0.264785 -105.306 -97.1214 0 -123.059 -39.8079 7066.34 3047.51 1720.32 0.05 
4450 1 -3.09343 0.431722 7.00507 0 0 0 327.863 -429.268 -1.23747 -950761 -7.81231e+07 -344241 3815.74 0.434393 3121.52 0.05 
12193 1 -1.62298 0.445346 7.00909 0 0 0 55389.3 -12453.4 -297.243 -3.96647e+08 7.35714e+07 1.17326e+07 -10160.8 -73861.4 -5606.1 0.05 
13401 1 -1.4892 0.44223 7.00349 0 0 0 312.966 -387.678 -422.11 -0.11449 -381.41 -39.8079 12578 5139.25 1399.98 0.05 
13997 1 -1.31655 0.433774 7.0015 0 0 0 334.206 -325.917 -3.41963 1.27219e+06 -3.75747e+08 -2.27501e+06 4950.89 345.261 -3332.4 0.05 
12657 1 -1.21132 0.455362 7.00115 0 0 0 256.919 -229.155 0.381762 4.24019e+08 -7.34695e+06 -1.56534e+07 985.56 259.073 10612.2 0.05 
13330 1 -0.0551413 0.424449 7.00396 0 0 0 2.74137 -320.644 -2.04804 1.07789e+06 833069 -1.05027e+06 -291.802 29.8704 3013.68 0.05 
12618 1 -3.56913 0.482123 6.99762 0 0 0 1318.56 -180.542 -329.706 2.56856e+07 1.45678e+06 -899087 4880.16 3069.76 2208.28 0.05 