ITEM: TIMESTEP
320000
ITEM: NUMBER OF ATOMS
14052
ITEM: BOX BOUNDS ff pp ff
-3.75 3.75
-1 1
0 10
ITEM: ATOMS id type x y z ix iy iz vx vy vz fx fy fz omegax omegay omegaz radius 
9412 1 -2.15413 -0.351605 4.36446 0 0 0 1.89464 14.6513 -171840 -0.451323 75.2327 -39.8079 -9278.38 13846.1 5701.27 0.05 
13821 1 -1.59504 -0.510388 4.37294 0 0 0 0.275183 105.578 -171857 -0.138558 1464.22 -39.8079 4511.3 3783.37 -2558.63 0.05 
10206 1 -3.22416 0.650904 4.40856 0 0 0 223.626 -338.428 -170107 703.106 -44439.3 -39.8079 5136.14 -10974 -8981.36 0.05 
12795 1 -2.98447 -0.319032 4.46152 0 0 0 496.068 -76.1834 -168732 8.62431 42.9294 -39.8079 -10403.9 3184.62 3882.04 0.05 
13215 1 -0.227489 -0.101692 4.44804 0 0 0 -0.415757 615.338 -169069 0 0.480803 -39.8079 56.5582 22216.6 -6775.57 0.05 
4371 1 -1.71273 0.397562 4.50785 0 0 0 0.978136 -152.086 -167037 -0.173176 -168.539 -39.8079 17513.9 -2599.57 17.1685 0.05 
11397 1 -0.430414 0.754543 4.51745 0 0 0 0.381765 53.2292 -166689 0 -1.51073e+06 -39.8079 9019.46 16450.5 -5556.43 0.05 
7183 1 -0.75053 -0.360327 4.52524 0 0 0 -0.775491 310.248 -166448 0 87.5197 -39.8079 -12783.2 -9045.73 -4366.71 0.05 
12202 1 -1.6981 -0.492978 4.59296 0 0 0 179.822 82.5016 -164076 -0.168331 1024.03 -39.8079 9591.61 11592.2 3632.57 0.05 
10576 1 -3.2689 0.234863 4.59449 0 0 0 288.582 -171.664 -164748 1750.42 -9.84118 -39.8079 -34639.3 13625.1 1203.32 0.05 
13017 1 -1.48729 -0.792595 4.62798 0 0 0 0.909248 582.122 -163153 -0.114107 8.14511e+06 -39.8079 -24189.3 -7438.98 3021.17 0.05 
8448 1 -0.483475 -0.79838 4.72693 0 0 0 0.508839 350.408 -159922 0 1.08088e+07 -39.8079 -5624.8 -12451.1 599.922 0.05 
11202 1 -0.849667 0.251546 4.75342 0 0 0 123.447 238.648 -159224 0 -13.2889 -39.8079 -9912.06 27218.7 2176.75 0.05 
13635 1 -1.11897 0.675352 4.73885 0 0 0 1.12983 -248.931 -159669 0 -91998.6 -39.8079 23219.4 1106.72 3265.97 0.05 
11049 1 -2.64852 -0.218497 4.79941 0 0 0 133.741 -5.57849 -157302 -1.58159 7.2733 -39.8079 18.8217 -15907.8 3665.63 0.05 
9405 1 -1.49353 0.137256 4.80779 0 0 0 152.075 67.4589 -157450 -0.115367 -1.29937 -39.8079 -6349.9 -4238.04 -3403.14 0.05 
12319 1 -0.052934 0.161219 4.81147 0 0 0 -0.207636 85.6351 -158386 0 -2.28139 -39.8079 -4133.99 98548.8 -3973.59 0.05 
11924 1 -1.4842 -0.436993 4.85732 0 0 0 0.042537 132709 -156145 -0.113487 345.826 -39.8079 -713.479 -4098.91 8296.87 0.05 
13254 1 -1.96443 0.529316 4.85734 0 0 0 -0.150737 27.6412 -155765 -0.291485 -2187.87 -39.8079 -7367.64 -23625.4 3565.41 0.05 
12761 1 -0.541565 0.529685 4.84495 0 0 0 0.273628 -327.092 -156298 0 -2205.38 -39.8079 16792.2 -12762.6 -880.602 0.05 
11242 1 -1.16453 0.578264 4.89123 0 0 0 -0.0422323 -200.717 -155175 0 -6647.43 -39.8079 11388 -13157.8 4496.39 0.05 
8681 1 -0.510986 0.820556 4.92481 0 0 0 -0.925695 -772.828 -153783 0 -3.46621e+07 -39.8079 -50699.1 11980.1 1235.89 0.05 
12566 1 -1.89847 0.272294 4.94472 0 0 0 77.5525 -317.074 -153211 -0.252734 -19.1542 -39.8079 -16700 2013.15 5382.68 0.05 
12900 1 -3.48751 0.800328 4.94759 0 0 0 310.819 -527.993 -151839 772015 -1.1911e+07 -39.8079 -23920.6 40304.7 -3110.64 0.05 
12455 1 -2.35563 -0.3079 5.08392 0 0 0 1.67213 168.304 -148866 -0.750418 35.456 -39.8079 7925.15 12355.5 -4376.61 0.05 
4032 1 -1.64334 0.244964 5.0805 0 0 0 0.993796 310.862 -148998 -0.151618 -11.8135 -39.8079 9126.22 20299.1 3259.07 0.05 
7677 1 -1.36622 0.536481 5.08662 0 0 0 -0.253296 -136.762 -149126 -0.0927062 -2556.79 -39.8079 -7104.88 7447.28 662.835 0.05 
10609 1 -1.77685 -0.32163 5.12105 0 0 0 1.51252 -165.219 -147349 -0.196573 44.8889 -39.8079 27672.1 -1753.56 3676.46 0.05 
11415 1 -0.87676 0.821869 5.10253 0 0 0 238.893 -928.337 -148344 0 -3.73045e+07 -39.8079 -96357.5 -10605.3 1405.99 0.05 
8255 1 -3.29276 -0.428494 5.14442 0 0 0 175.977 68.4655 -146740 2935.88 295.394 -39.8079 -29492.7 -11449 4606.84 0.05 
13781 1 -2.52469 -0.000981965 5.22811 0 0 0 31.3856 1.24119 -144580 -1.17357 3.86325e-07 -39.8079 5489.15 -18032.1 -657.816 0.05 
12363 1 -3.15015 -0.414135 5.29042 0 0 0 355.596 239.596 -142172 175.798 227.136 -39.8079 8225.56 -3555.31 5490.18 0.05 
7639 1 -0.954668 -0.192497 5.29325 0 0 0 -1.0914 165.7 -141912 0 4.40116 -39.8079 15457.6 21674 1082.4 0.05 
6492 1 -1.69762 0.757611 5.25464 0 0 0 110.525 -198.733 -142339 -0.168175 -1.71327e+06 -39.8079 16696.9 -12891.1 2389.16 0.05 
9165 1 -2.43652 -0.769249 5.31332 0 0 0 69.1415 59.6569 -141097 -0.92941 2.80279e+06 -39.8079 -44682.4 13410.2 -3042.24 0.05 
6487 1 -3.35699 -0.324679 5.31107 0 0 0 396.827 223.839 -141599 13525.3 47.303 -39.8079 12836.7 -22377.9 -7704.65 0.05 
13278 1 -2.0436 0.809451 5.3455 0 0 0 147.39 -1176.39 -140221 -0.348098 -1.90136e+07 -39.8079 -69159.6 7820.31 8625.9 0.05 
11852 1 -2.18465 -0.537679 5.38677 0 0 0 209.781 264.785 -138928 -0.486075 2624.8 -39.8079 11897.3 19456.2 984.161 0.05 
10766 1 -2.7755 0.0221102 5.38367 0 0 0 274.323 -645.343 -139270 -1.77287 -0.00443365 -39.8079 -41199.7 -4787.51 941.861 0.05 
3777 1 -2.73903 -0.6012 5.42066 0 0 0 477.102 -46658.1 -137498 -1.79593 11675 -39.8079 2511.96 -4716.12 -2155.11 0.05 
11713 1 -2.15289 -0.252435 5.43339 0 0 0 187.819 -811.193 -137639 -0.44997 13.5009 -39.8079 12852.1 -8865.71 6541.5 0.05 
9454 1 -2.46712 -0.121159 5.4364 0 0 0 23.8613 148.175 -137789 -1.00821 0.853254 -39.8079 8704.99 5585.32 2765.96 0.05 
12207 1 -0.638596 0.36098 5.3995 0 0 0 -0.261889 -17318 -139063 0 -88.5193 -39.8079 -20262.1 -18969.9 601.985 0.05 
3037 1 -0.655925 0.0306844 5.5081 0 0 0 51.9572 -3.79083 -135437 0 -0.0119095 -39.8079 -3964.81 -4136.05 3439.81 0.05 
9289 1 -0.142848 0.318502 5.5251 0 0 0 1.1644 -131.287 -134108 0 -42.5398 -39.8079 -3624.17 -6460.88 4435.75 0.05 
10622 1 -2.53118 -0.515517 5.5681 0 0 0 149.526 3.09313 -132670 -1.19357 1630.31 -39.8079 -19546.9 30099.5 -1973.68 0.05 
9291 1 -0.582912 -0.164094 5.59966 0 0 0 0.867404 -55.9492 -132285 0 2.43105 -39.8079 9808.39 -21308.2 -682.456 0.05 
6601 1 -3.06699 -0.240396 5.65581 0 0 0 222.059 156.804 -130485 40.5279 10.8804 -39.8079 1511.83 7088.19 3380.35 0.05 
8417 1 -2.52963 -0.639932 5.66582 0 0 0 9.37303 66461.2 -129879 -1.18876 32581.4 -39.8079 7807.19 -6700.52 1209.71 0.05 
1298 1 -2.31982 -0.553839 5.65769 0 0 0 79.3297 274.92 -130642 -0.683539 3764.23 -39.8079 5833.24 8835.42 -5717.94 0.05 
10028 1 -3.44608 0.695388 5.74829 0 0 0 386.665 -271.514 -126502 178149 -174120 -39.8079 44558.4 21410.1 2807.04 0.05 
11208 1 -0.922923 0.317655 5.76198 0 0 0 -0.489781 -313.998 -127289 0 -41.9259 -39.8079 -18203.6 16205.6 -2992.52 0.05 
11214 1 -1.9091 0.811246 5.78939 0 0 0 194.512 -949.587 -125393 -0.25853 -2.0901e+07 -39.8079 -70915.1 587.244 -4847.1 0.05 
2112 1 -1.37442 -0.396899 5.84307 0 0 0 111.049 -54.5445 -124158 -0.0939884 166.556 -39.8079 1233.91 1872.77 1305.06 0.05 
206 1 -2.29103 -0.76073 5.87839 0 0 0 83.4541 66.4375 -122356 -0.634663 1.95028e+06 -39.8079 -18401.5 -18084.4 1061.65 0.05 
8660 1 -2.89826 -0.781587 5.95817 0 0 0 534.999 442.499 -119849 0.271427 4.85605e+06 -39.8079 14477.5 -14760.4 -8301.81 0.05 
9911 1 -2.30435 -0.191395 5.95057 0 0 0 90.3066 -152.24 -121287 -0.656761 4.30524 -39.8079 -9458.35 6156.14 792.257 0.05 
13478 1 -2.79058 0.407863 5.91717 0 0 0 449.637 -45.6358 -121456 -1.72476 -202.765 -39.8079 -10129.5 -26863.5 2476.92 0.05 
4730 1 -2.34956 0.571854 5.9308 0 0 0 334.723 -235.058 -121644 -0.738589 -5708.98 -39.8079 20948.1 -7961.38 -4366.16 0.05 
12559 1 -2.60334 -0.772302 5.96956 0 0 0 32464 41.7933 -119774 -1.42996 3.20208e+06 -39.8079 -43723.8 -25383.5 -13862.8 0.05 
13047 1 -1.47141 -0.504813 6.01324 0 0 0 2.72496 121.488 -118930 -0.110972 1304.27 -39.8079 -5261.26 -2525.86 1985.84 0.05 
4350 1 -1.93974 -0.595079 6.03165 0 0 0 93.4383 630.47 -117650 -0.276181 10015.7 -39.8079 -12400.1 -42919.9 4136.68 0.05 
3659 1 -1.15944 -0.610864 6.05135 0 0 0 5.16334 430.725 -117801 0 14941.6 -39.8079 2733.13 11103 -565.496 0.05 
9947 1 -0.484497 -0.207312 6.04299 0 0 0 0.987894 -342.507 -117774 0 5.88203 -39.8079 -10103.5 12433.8 10082.9 0.05 
7680 1 -0.230753 0.660139 6.03256 0 0 0 -0.0890154 3.43852 -117826 0 -58142.4 -39.8079 -7670.81 -7350.76 -6526.56 0.05 
11268 1 -1.93232 -0.197796 6.16081 0 0 0 1.76208 -81.2142 -114222 -0.271774 4.88857 -39.8079 29864.8 -3618.73 -685.673 0.05 
12040 1 -3.19265 0.0942273 6.13386 0 0 0 471.713 -356.738 -114849 383.752 -0.376371 -39.8079 15089.1 17082 -86.3417 0.05 
12192 1 -0.206444 0.179865 6.22486 0 0 0 2.37786 -93.6073 -112466 0 -3.40374 -39.8079 19408.4 -524.192 3250.39 0.05 
7591 1 -0.677 0.715081 6.18065 0 0 0 -0.00815119 68.3669 -113236 0 -339926 -39.8079 14341 -7770.88 7549.9 0.05 
13500 1 -0.507372 0.79629 6.25045 0 0 0 1.06112 -118915 -111014 0 -9.74948e+06 -39.8079 38161.3 9002.19 3337.92 0.05 
9169 1 -1.88555 -0.441111 6.32215 0 0 0 34.9853 72468.5 -109754 -0.2459 373.494 -39.8079 18361.9 -32131.1 19347.1 0.05 
8359 1 -2.18596 0.0572743 6.30174 0 0 0 77.7597 -401.521 -109586 -0.487634 -0.079464 -39.8079 -5819.2 -7486.86 -11905.4 0.05 
10939 1 -2.73986 0.641138 6.30141 0 0 0 188.799 39.8836 -108479 -1.7965 -33696.9 -39.8079 3906.56 21481.6 603.853 0.05 
13249 1 -1.23653 -0.753563 6.33472 0 0 0 199.43 542.631 -107671 0 1.45171e+06 -39.8079 -27288.1 23601.4 -625.568 0.05 
8437 1 -3.41909 0.331642 6.3376 0 0 0 585.042 38137.3 -108235 75982.5 -53.3176 -39.8079 19327.7 -34445.8 -4832.02 0.05 
13159 1 -3.55932 0.488602 6.34135 0 0 0 883.831 -477.739 -107355 1.88823e+07 -937.541 -39.8079 -17199.1 -37408.3 -2407.07 0.05 
12032 1 -2.87838 -0.334039 6.42601 0 0 0 290.307 -84.2955 -104733 -0.456285 55.5633 -39.8079 4790.94 -28224.8 3147.42 0.05 
13964 1 -0.207473 -0.239611 6.43971 0 0 0 -1.73267 -435.101 -104936 0 10.7271 -39.8079 -4294.31 -12211.4 -775.338 0.05 
6590 1 -3.56123 -0.132041 6.43709 0 0 0 708.283 131.805 -105312 2.08879e+07 1.13885 -39.8079 6267.37 -36918.6 8012.27 0.05 
9303 1 -0.349093 -0.12035 6.43733 0 0 0 0.589332 122.437 -105137 0 0.834472 -39.8079 -13928.1 -5148.38 933.195 0.05 
1859 1 -2.70011 0.264946 6.44295 0 0 0 110.629 -566.061 -104579 -1.73167 -16.8418 -39.8079 -5784.6 4348.33 5790.38 0.05 
6890 1 -2.16793 0.312018 6.48227 0 0 0 130.388 247.473 -103525 -0.466656 -38.0558 -39.8079 2141.05 14005.6 -3014.62 0.05 
12315 1 -3.42005 0.441764 6.43461 0 0 0 198.45 122.554 -105651 78213.2 -378.092 -39.8079 29274.3 -39488.5 7802.64 0.05 
4674 1 -1.60055 0.56545 6.47032 0 0 0 169.282 83.8397 -103803 -0.139974 -4914.17 -39.8079 24967.3 -9431.76 9902.63 0.05 
271 1 -3.47441 -0.160783 6.50375 0 0 0 266.208 194.947 -103281 474254 2.25936 -39.8079 -6456.94 40297.8 -4579.49 0.05 
13236 1 -3.13936 0.0521291 6.49937 0 0 0 271.394 -26401 -102743 144.893 -0.0595451 -39.8079 1781.1 -1637.86 4576.29 0.05 
11483 1 -1.88841 -0.747277 6.55031 0 0 0 4.93022 4886.41 -101314 -0.247395 1.12836e+06 -39.8079 65648.3 -5559.14 -2364.46 0.05 
7042 1 -1.69117 0.497753 6.58293 0 0 0 223.827 -12654.7 -100089 -0.166092 -1128.34 -39.8079 -34206.3 -5516.62 3736.18 0.05 
13162 1 -0.414153 0.0418044 6.61394 0 0 0 109.41 261.21 -98328.8 0 -0.030384 -39.8079 336.558 -9142.93 2716.89 0.05 
10345 1 -3.09208 -0.734304 6.68016 0 0 0 128.2 5018.99 -96029.9 62.9592 683822 -39.8079 52479.7 4063.3 -1435.06 0.05 
3372 1 -1.59227 -0.0178106 6.64843 0 0 0 4.82462 104.867 -98057.9 -0.13785 0.00231316 -39.8079 -23909.3 -10681.9 -2635.59 0.05 
8516 1 -0.701547 0.266302 6.66362 0 0 0 1.42313 -60.5683 -97581.6 0 -17.2475 -39.8079 2073.26 9071.94 8287.91 0.05 
3963 1 -0.262186 0.566899 6.65783 0 0 0 2.44269 221.959 -97608.4 0 -5082.88 -39.8079 -5048.29 -19173.1 -6525.2 0.05 
10960 1 -1.21934 0.796554 6.66218 0 0 0 595.398 -3056.42 -97761.7 0 -9.87696e+06 -39.8079 -90095.7 -10669.7 9763.8 0.05 
13505 1 -0.164193 -0.506727 6.72175 0 0 0 153.17 69735 -96226 0 1356.94 -39.8079 23766.4 5473.26 -5383.39 0.05 
13612 1 -1.51858 -0.177243 6.71961 0 0 0 62.0346 -322.345 -95748.3 -0.120611 3.22269 -39.8079 -15597.4 371.408 3250.97 0.05 
4198 1 -1.48577 -0.0454767 6.7088 0 0 0 89.7897 67.2626 -96374.1 -0.113802 0.0392533 -39.8079 -21743.3 -3519.48 1061.91 0.05 
11890 1 -2.844 0.139534 6.70723 0 0 0 451.004 -143.809 -96205.9 -1.2323 -1.37478 -39.8079 22358.7 -25560.3 3189.61 0.05 
10867 1 -3.07143 0.794888 6.71244 0 0 0 400.747 -478.177 -95278.5 43.826 -9.10301e+06 -39.8079 -14545.6 26999.2 991.261 0.05 
13274 1 -1.3435 -0.797037 6.75522 0 0 0 153.741 193.873 -94381.9 -0.0892657 1.01142e+07 -39.8079 2351.61 -12550.2 -462.172 0.05 
12344 1 -0.10479 -0.228203 6.7934 0 0 0 -0.974427 -381.27 -92491.4 0 8.71104 -39.8079 -1449.49 -3011.39 12858.7 0.05 
12661 1 -3.53965 0.282257 6.79295 0 0 0 608.908 -45.1973 -93168.8 7.07237e+06 -22.7799 -39.8079 15991.1 -5875.18 -3027.09 0.05 
9422 1 -1.45446 0.434124 6.77389 0 0 0 145.633 -279.522 -93780.3 -0.107744 -327.847 -39.8079 5125.03 2882.75 6268.6 0.05 
4108 1 -0.716769 -0.61526 6.83297 0 0 0 8.49039 343.109 -91544.4 0 16748.8 -39.8079 23231 11283.8 -603.078 0.05 
11228 1 -0.854045 0.675062 6.83952 0 0 0 212.248 -292.095 -91138.1 0 -91179.4 -39.8079 26710.5 22515 882.167 0.05 
10394 1 -1.98106 -0.807714 6.89162 0 0 0 455.702 882.407 -89839.8 -0.302389 1.73644e+07 -39.8079 48274.2 4032.71 470.026 0.05 
10294 1 -1.68158 -0.714402 6.87555 0 0 0 8.9747 -85.8408 -90196.4 -0.163058 331924 -39.8079 15261.7 -5016.74 -2015.43 0.05 
7105 1 -1.48541 -0.374994 6.86805 0 0 0 154.374 -258.265 -90828.2 -0.113729 113.059 -39.8079 15953.6 -388.134 9770.12 0.05 
3780 1 -0.874995 -0.0764991 6.88819 0 0 0 214.749 -236.551 -90065.6 0 0.194782 -39.8079 10985.2 15940 -3369.77 0.05 
6232 1 -3.38617 -0.591773 6.90525 0 0 0 597.985 593.133 -89029.1 29357.8 9228.43 -39.8079 -27584.8 35113.1 -8282.62 0.05 
11247 1 -2.37193 -0.0783242 6.91096 0 0 0 281.584 -280.537 -89138.6 -0.783259 0.20971 -39.8079 20176.5 16917.6 2779.55 0.05 
10082 1 -0.0747225 -0.925151 7.00165 0 0 0 1.58325 -47603.1 -27.1792 0 2.1742e+11 -39.8079 -61978.8 -1191.29 -35479.9 0.05 
14013 1 -3.30285 -0.824263 7.00185 0 0 0 1.8501 1549.48 0.506435 1.52978e+06 3.62429e+07 509562 -906.263 4.85468 3647.87 0.05 
12327 1 -1.10087 -0.817107 7.00053 0 0 0 0.439206 694.46 1.04377 651539 2.6259e+07 398407 -5628.71 43.1463 3919.64 0.05 
6695 1 -0.781352 -0.821573 7.00085 0 0 0 -0.158495 998.116 -1.94115 0 3.6689e+07 -39.8079 -1105.73 -1.7622 291.429 0.05 
13221 1 -0.460271 -0.823918 6.99828 0 0 0 1.12402 986.009 -269.84 264152 3.48591e+07 1.51879e+06 -9366.35 -3253.51 -592.672 0.05 
13855 1 -1.76215 -0.755601 7.00267 0 0 0 38.6549 279.703 -78.3164 -351532 4.71416e+06 1.53167e+06 -3182.5 3750.28 -5630.51 0.05 
12243 1 -0.703865 -0.749832 7.00116 0 0 0 72.871 301.669 0.138432 0 1.2491e+06 -39.8079 -5547.34 337.431 -7846.79 0.05 
11028 1 -0.585258 -0.765254 7.00042 0 0 0 -0.150918 241.443 -122.535 5.1928e+06 1.6184e+07 -3.3086e+08 -8746.77 1107.63 4995.01 0.05 
5466 1 -0.115575 -0.781819 7.006 0 0 0 -0.699464 198.291 -133.422 0 4.90782e+06 -39.8079 -10982.4 -3202.56 -9449.25 0.05 
13426 1 -3.28453 -0.733743 7.0083 0 0 0 230.802 176.127 0.523492 -1.52365e+06 7.13489e+06 -509641 -1192.7 3586.42 -10.558 0.05 
9896 1 -3.0655 -0.702722 7.00963 0 0 0 310.488 215.479 -235.093 39.4763 222229 -39.8079 -559.755 -954.382 -3468.77 0.05 
11386 1 -2.4806 -0.716485 7.00596 0 0 0 283.658 260.438 -189.377 -1.04494 357155 -39.8079 1642.02 7663.69 -797.809 0.05 
8380 1 -0.566761 -0.685264 6.95167 0 0 0 155.254 460.638 -88057.9 6.27848e+06 4.51973e+06 8.53532e+08 -833.341 -1591.05 6915.79 0.05 
11448 1 -3.35135 -0.659177 7.0053 0 0 0 340.228 6.15465 -159.175 -184801 2.04984e+07 -244638 -5276.12 -2001.09 237.89 0.05 
9043 1 -2.27649 -0.662273 7.00113 0 0 0 336.617 0.620116 -4.94756 -0.611502 61931.2 -39.8079 234.082 1460.24 -132.83 0.05 
9387 1 -1.88454 -0.634259 7.00025 0 0 0 360.387 325.826 -205.583 5.93987e+06 4.38594e+08 4.23514e+06 -9507.65 -3069.21 2296.07 0.05 
13214 1 -1.70155 -0.640548 7.00795 0 0 0 338.407 265.047 -156.975 -40124.7 261982 -176578 1732.12 2165.2 6028.4 0.05 
13698 1 -0.544649 -0.634512 7.00062 0 0 0 361.114 262.544 -197.923 -1.26314e+07 4.03526e+07 -5.19867e+08 339.091 340.228 2655.99 0.05 
3890 1 -3.45437 -0.604565 7.00414 0 0 0 444.892 1.89445 -183.16 234926 12713.8 -39.8079 -1069.1 10032.3 850.346 0.05 
14036 1 -2.3719 -0.627291 7.00035 0 0 0 394.27 174.68 -77.2312 -0.7832 23044.8 -39.8079 -5492.48 5111.42 -5038.93 0.05 
13329 1 -1.32838 -0.594834 7.00407 0 0 0 430.604 256.341 -0.00466271 -0.0870638 9955.09 -39.8079 -1941.81 4204.42 -4716.37 0.05 
5912 1 -0.355665 -0.598679 7.0015 0 0 0 424.27 404.862 0.0856638 0 10957.6 -39.8079 -7199.26 4451.28 2980.28 0.05 
11316 1 -2.81124 -0.55765 7.00166 0 0 0 287.696 210.018 -3.93187 -1.60525 4105.46 -39.8079 -3944.5 4585.05 -5793.04 0.05 
11479 1 -2.458 -0.534836 7.00252 0 0 0 299.731 220.099 -309.682 1.09935e+06 96132.3 -101115 -3220.53 -6380.87 6506.09 0.05 
7434 1 -1.82345 -0.572058 7.00839 0 0 0 26.389 10277.9 -6.60895 -2.4322e+06 3.20072e+08 -1.18024e+07 6522.05 553.933 410.989 0.05 
12594 1 -0.813815 -0.549183 7.00679 0 0 0 302.338 284.501 -2.11489 301333 -258263 -423583 -115.57 4242.17 4664.93 0.05 
10556 1 -0.708587 -0.540008 7.00947 0 0 0 307.958 342.524 -155.774 -715646 -592799 1.39898e+06 788.849 3138.1 -3363.92 0.05 
9307 1 -0.259403 -0.533047 7.00188 0 0 0 291.105 479.222 1.16765 0 2372.16 -39.8079 -3830.5 4721.73 1936.9 0.05 
12205 1 -3.11999 -0.503504 7.00359 0 0 0 228.1 80.629 -77.9873 -555750 -144668 -922694 -4923.42 2279.16 4654.85 0.05 
7966 1 -2.02163 -0.519029 7.00054 0 0 0 271.21 261.385 -1.14496 -0.33114 1755.78 -39.8079 -5905.43 4623.78 3846.23 0.05 
10984 1 -1.50261 -0.505681 7.00055 0 0 0 246.569 24.4129 -391.807 -393558 592271 -17008.3 -221.885 4300.02 4530.97 0.05 
13525 1 -1.37164 -0.49013 7.00908 0 0 0 217.778 324.841 -54.5417 -1.08702e+06 -492840 -308930 -3498.38 1945.06 4140.45 0.05 
5517 1 -3.43475 -0.433802 6.99997 0 0 0 6971.53 -3.06245 -1.31462 -2.52745e+07 485236 -99203.7 29.1713 -5171.05 4987.92 0.05 
6295 1 -3.22271 -0.472276 7.00685 0 0 0 127.485 303.221 -202.558 1.78087e+06 8.98957e+07 2.16478e+06 -7302.52 410.154 5871.63 0.05 
13644 1 -2.15766 -0.467692 7.00018 0 0 0 110.888 0.565742 -157.235 -0.455191 620.229 -39.8079 5712.16 -318.792 4093.59 0.05 
7418 1 -1.68383 -0.449772 6.99787 0 0 0 0.890269 278.433 -264.707 -0.163764 439.717 -39.8079 181.889 -2164.34 1394.11 0.05 
3483 1 -0.639128 -0.471125 7.00939 0 0 0 132.021 131.681 -2.33601 715646 596225 -1.39906e+06 -4462.57 1664.38 2243.8 0.05 
6072 1 -3.06717 -0.415738 7.00545 0 0 0 0.870144 186.883 -100.429 -1.92667e+06 3.20943e+08 -68468.2 -5755.57 -4320.85 1382.25 0.05 
11339 1 -2.0738 -0.371769 7.00485 0 0 0 1.15656 192.983 -242.271 6.20547e+06 -8.9319e+06 -5.22322e+08 -2850.63 -1217.04 4924.99 0.05 
11812 1 -2.0187 -0.410576 6.98637 0 0 0 8.24955 64.5485 -86838.8 1.28345e+07 5.72743e+06 9.67057e+08 -11836.3 -25009.9 9905.38 0.05 
12492 1 -1.42302 -0.402907 7.00727 0 0 0 0.290928 283.972 -444.797 -0.10206 185.467 -39.8079 -5414.35 134.491 4899.75 0.05 
2539 1 -1.1615 -0.407865 7.0089 0 0 0 0 0.00159905 -0.00031392 0 202.774 -39.8079 0 0 0 0.05 
6261 1 -0.775937 -0.372033 6.99703 0 0 0 0.281684 336.86 -308.997 0 107.342 -39.8079 -2696.97 3748.79 -391.03 0.05 
11157 1 -0.354936 -0.411028 7.00165 0 0 0 -0.363799 253.589 -0.0298457 0 214.696 -39.8079 -2619.93 -3.18921 5536.32 0.05 
12860 1 -0.240017 -0.40776 7.00328 0 0 0 0.986681 294.755 0.166961 5.54433e+06 1.09656e+08 -1.1115e+06 1866.74 3.71033 -1959.59 0.05 
3298 1 -2.4008 -0.350556 7.00571 0 0 0 65.2207 251.122 -207.485 -0.845315 73.8789 -39.8079 -7407.33 4969.75 -8391.18 0.05 
13080 1 -1.6294 -0.325944 7.00379 0 0 0 197.143 174.826 -0.755899 -0.147696 48.3426 -39.8079 -1215.14 1294.46 -11191.4 0.05 
11927 1 -1.26356 -0.327986 7.00106 0 0 0 157.265 -56.4542 -2.85725 3.94385e+08 5.46201e+08 3.59552e+06 593.658 1174.7 -5035.66 0.05 
11626 1 -3.32926 -0.292568 7.00927 0 0 0 303.052 -0.212897 -265.272 6806.9 27.2286 -39.8079 4436.21 -2902.13 -4277.21 0.05 
246 1 -1.97567 -0.30639 7.00776 0 0 0 260.68 227.106 -0.510863 -0.298802 34.5468 -39.8079 -4401.5 1334.13 -10537.5 0.05 
1680 1 -1.26726 -0.268858 7.00832 0 0 0 133.044 76508.4 -238.327 5.43555e+08 -1.77637e+09 -1.35019e+07 -37573.6 3931.43 -10600.4 0.05 
12444 1 -0.778881 -0.250718 7.00694 0 0 0 2.97504 134208 -165.126 7.08351e+07 -1.71016e+09 -5.14524e+06 16825.6 -2198.93 -19897.9 0.05 
13413 1 -0.751357 -0.272174 7.00818 0 0 0 6.44413 199.389 -72.7228 -4.22969e+07 9.94551e+08 -3.90286e+06 3098.43 82.7095 -2511.05 0.05 
13443 1 -2.62335 -0.234463 7.00431 0 0 0 313.393 306.637 -303.102 -1.49778 9.76975 -39.8079 -9285.9 -1777.63 1566.2 0.05 
4622 1 -1.82037 -0.212862 7.01013 0 0 0 247.524 -333.481 -1.49577 -0.214707 6.53963 -39.8079 1618.76 921.204 5554.22 0.05 
11055 1 -1.58579 -0.223458 7.0091 0 0 0 284.437 77.1732 -126 -0.136217 7.97901 -39.8079 -3994.61 5233.94 1669.15 0.05 
9031 1 -1.07493 -0.255674 7.00495 0 0 0 -0.349827 0.558185 -0.133493 0 14.3003 -39.8079 -36.4954 -0.289483 8.36268 0.05 
8291 1 -0.433878 -0.221191 7.00993 0 0 0 0.427325 -44.5696 -242.264 0 7.6492 -39.8079 -1642.04 -5952.09 2099.96 0.05 
10863 1 -3.50812 -0.176227 7.0041 0 0 0 4471.22 -5.72323 -474.04 -2.92642e+07 -1.97137e+06 -1.07426e+06 -6568.99 676.014 5687.89 0.05 
11894 1 -3.17314 -0.176254 7.00155 0 0 0 96.4167 5.55137 -3.27756 146040 1.57377e+06 -982310 -122.342 655.856 3925.53 0.05 
7242 1 -1.01375 -0.157908 7.00594 0 0 0 0.575333 0.37995 -184.543 0 2.11836 -39.8079 3269.03 5355.09 3.02773 0.05 
12122 1 -0.561736 -0.186552 6.99756 0 0 0 -0.486486 -280.04 -438.813 0 3.90459 -39.8079 1571.51 2273.6 -4490.38 0.05 
13658 1 -0.159218 -0.166984 6.99845 0 0 0 -0.165127 -114.764 -340.746 58373 38798.9 -56949.1 5127.4 -2453.76 -4774.95 0.05 
12127 1 -2.82774 -0.110333 7.00615 0 0 0 0.14902 -17.5509 -51.8905 -1.45121 0.626677 -39.8079 -1219.28 2152.68 -731.6 0.05 
6839 1 -2.93587 -0.0589545 7.00059 0 0 0 91.1857 -7.34026 -0.645199 2.55176 0.0868507 -39.8079 -34.7173 3569.02 -2026.01 0.05 
9952 1 -1.27483 -0.0740519 7.0053 0 0 0 83.8854 -335.815 -0.280694 -0.0797895 0.175965 -39.8079 779.265 3131.86 -3371.85 0.05 
13065 1 -0.44665 -0.0710628 7.00084 0 0 0 56.5499 -214.442 -3.93708 -4.80947e+06 -2.03261e+08 -6.88489e+06 2681.07 2341.85 1682.75 0.05 
11753 1 -2.6831 -0.00766412 7.00413 0 0 0 155.808 306.707 -133.084 -434060 -1.41956e+08 -3.30321e+06 437.304 1675.18 654.486 0.05 
13038 1 -2.38308 -0.0446717 7.00993 0 0 0 163.976 140.151 -293.679 1.08848e+06 -1.546e+08 -46227.2 3984.66 7004.52 -6096.46 0.05 
9721 1 -2.21249 -0.0449478 7.00071 0 0 0 122.864 -3.60597 0.173416 -0.520586 0.0378796 -39.8079 90.524 4807.09 -1539.58 0.05 
11177 1 -1.65813 -0.0165269 7.00114 0 0 0 141.962 261.144 -198.862 -936714 -311527 -315642 -4004.95 11894.1 -1676.67 0.05 
10773 1 -0.273075 -0.0410426 7.00065 0 0 0 126.001 218.709 -136.875 0 0.0287333 -39.8079 4214.1 7977.33 -7016.14 0.05 
9438 1 -3.50029 0.0218426 7.00378 0 0 0 4727.17 -58.6219 -45.3759 -8.37144e+07 -9.38614e+07 -4.62842e+08 1077.99 -1194.83 -836.502 0.05 
1157 1 -1.05272 0.0220062 7.00782 0 0 0 115.779 0.284654 -0.332906 0 -0.0043712 -39.8079 -34.9352 4161.11 2477.71 0.05 
2032 1 -0.422478 0.0492435 6.99982 0 0 0 1.15672 -302.125 -333.327 0 -0.0500331 -39.8079 5672.86 1259.79 -199.496 0.05 
5587 1 -2.27449 0.0582508 7.00824 0 0 0 49.1615 0.161683 -94.3528 -0.608394 -0.0837019 -39.8079 -74.9332 5912.01 -1512.14 0.05 
4228 1 -2.03789 0.0884106 7.00415 0 0 0 119.611 -87.8968 -1.67864 -0.343588 -0.307258 -39.8079 1024.1 4523.61 4066.53 0.05 
5683 1 -1.90245 0.0569699 7.00453 0 0 0 27.0155 -107.832 -0.420063 1.12206e+06 -110679 13669.2 846.041 973.08 -5179.72 0.05 
9104 1 -0.713872 0.0637579 7.00966 0 0 0 91.2118 3.82653 -195.139 -279123 -76913.4 889158 3105.1 8658.95 -2687.25 0.05 
11421 1 -3.50283 0.154421 7.0034 0 0 0 4624.77 -112.57 -9.95432 -5.70447e+07 4.16082e+08 -4.30305e+08 3710.79 -361.558 3728.03 0.05 
1592 1 -1.43843 0.119475 7.00675 0 0 0 175.327 193.195 -225.815 757698 -7.80683e+07 1.92825e+06 -2360.2 68.2227 4168.74 0.05 
8636 1 -0.448876 0.156873 7.00616 0 0 0 120.445 -413.901 -0.683914 0 -2.06938 -39.8079 4452.07 4363.29 3557.15 0.05 
3720 1 -0.321747 0.115674 7.00093 0 0 0 143.364 313.586 -1.4371 0 -0.731901 -39.8079 -3241.05 5521.36 1523.92 0.05 
11518 1 -3.24937 0.185005 7.00168 0 0 0 3.89302 -225.388 -229.923 1165.69 -3.78355 -39.8079 -2998.39 -2600.31 5901.16 0.05 
8568 1 -3.0218 0.18785 7.00797 0 0 0 1.94802 -311.359 -0.183394 17.9508 -4.00875 -39.8079 3638.85 36.8077 3548.09 0.05 
11832 1 -2.59854 0.186013 7.00211 0 0 0 4.56071 99.0722 -2.75075 -1.41371 -3.86205 -39.8079 -3087.6 77.6596 2571.15 0.05 
11037 1 -1.5825 0.169703 7.00148 0 0 0 73.8897 1.1118 -118.633 6.2985e+06 3.29892e+08 -3.5723e+06 -1028.44 3773.94 1759.39 0.05 
5472 1 -1.06038 0.185043 7.00206 0 0 0 -0.480115 0.438003 -0.479891 0 -3.78642 -39.8079 -36.5086 0.40685 1.12942 0.05 
13760 1 -3.57502 0.253294 7.00033 0 0 0 1532.52 -181.95 -263.807 3.51111e+07 -1.2027e+06 -960638 2233.17 6195.07 56.0715 0.05 
10467 1 -3.39084 0.224517 7.00623 0 0 0 12.7582 -84.7715 -0.150419 2.76447e+07 417885 -1.56553e+06 885.159 458.413 -3706.93 0.05 
3741 1 -1.25446 0.222913 7.0102 0 0 0 0.444528 -331.801 -0.221774 -0.0772224 -7.89849 -39.8079 -7.20369 -1.50365 1997.48 0.05 
1210 1 -0.287027 0.251036 7.00017 0 0 0 -0.627418 224.627 -86686.1 1.47444e+06 -4.91517e+06 1.44572e+09 27299.3 -1574.75 -16043 0.05 
13514 1 -0.206694 0.24859 7.00969 0 0 0 1.40182 -108.903 -316.032 -4.76988e+06 -2.03645e+06 -4.56473e+08 8754.41 -1669.05 1756.92 0.05 
6836 1 -0.737039 0.275105 7.00257 0 0 0 -0.189888 5.0335 -288.598 -585827 428289 -463298 1024.7 4856.21 -11.089 0.05 
5181 1 -3.31027 0.344086 7.00141 0 0 0 340.181 -308.945 -1.13244 4359.23 -66.0655 -39.8079 3858.65 5791.69 -7304.2 0.05 
5457 1 -2.82915 0.322911 7.00454 0 0 0 219.112 0.624066 -65.9054 -1.43511 -45.8875 -39.8079 -2818.02 6535.62 -4939.71 0.05 
4861 1 -2.72217 0.352907 7.00909 0 0 0 390.333 120.043 -189.387 2.87615e+06 1.06202e+09 257260 3590.51 3024.1 -9444.12 0.05 
9264 1 -2.58689 0.31819 7.01011 0 0 0 196.344 -5.69127 -5.81876 3.0824e+06 2.38177e+08 -8.88878e+06 -35.841 5263.71 -1249.62 0.05 
7879 1 -2.47134 0.352935 7.01009 0 0 0 383.677 63.2494 -1.19804 -1.01958 -76.9856 -39.8079 2402.55 5587.35 -4912.58 0.05 
13743 1 -2.13721 0.355547 6.99989 0 0 0 354.843 -305.044 -240.579 -0.433335 -80.5505 -39.8079 8948.85 2256.48 -7214.97 0.05 
12717 1 -1.96383 0.365834 7.00124 0 0 0 289.422 -114.114 -2.52864 2.52966e+08 -1.73356e+06 -6.64585e+06 2683.76 1979.02 -1651.87 0.05 
5648 1 -1.35463 0.329286 7.00356 0 0 0 39.116 -37.267 -0.596291 2.92845e+08 1.97318e+06 -1.56113e+06 3946.23 -28.2174 -9847.37 0.05 
13166 1 -1.35343 0.420383 7.00261 0 0 0 69050.6 227.117 -195.483 -9.4183e+08 -1.59128e+07 2.44946e+06 -1458.36 -72453.2 -30507.8 0.05 
11062 1 -0.771381 0.402341 7.00205 0 0 0 0.699002 3.07593 -0.887244 0 -183.593 -39.8079 -144.685 -1.31459 215.002 0.05 
12140 1 -0.470411 0.37787 7.00254 0 0 0 0.000543864 -290.737 -142.392 0 -118.914 -39.8079 10358.1 -2577.21 -2300.36 0.05 
12270 1 -0.206458 0.380134 7.00998 0 0 0 -0.264785 -105.306 -97.1213 0 -123.745 -39.8079 7066.34 3047.51 1720.32 0.05 
4450 1 -3.09442 0.432914 7.00507 0 0 0 328.045 -363.108 -1.21923 1.31777e+06 -9.58243e+07 137186 3335.23 -17.691 1378.31 0.05 
13401 1 -1.49014 0.443393 7.00476 0 0 0 312.966 -387.677 -422.11 -0.114679 -389.833 -39.8079 12578 5139.25 1399.98 0.05 
13997 1 -1.31733 0.434543 7.0015 0 0 0 96.2682 -245.493 2.32701 5.30461e+08 1.38972e+07 6.82111e+06 4147.62 160.31 -7720.09 0.05 
12657 1 -1.2116 0.456051 7.00114 0 0 0 0.149443 -231.994 -0.112427 0 -495.547 -39.8079 996.856 -2.47231 6286.94 0.05 
13330 1 -0.0551483 0.425412 7.00397 0 0 0 1.97769 -321.23 -1.30442 982631 749178 -956232 -288.755 18.4383 3007.79 0.05 
12618 1 -3.57305 0.482666 6.9986 0 0 0 1296.67 -181.617 -329.044 3.38479e+07 1.44887e+06 -889106 4903.02 3104.71 2107.09 0.05 
2817 1 -2.63401 0.480869 7.00437 0 0 0 185.563 -233.514 -1.24108 -1.53363 -803.424 -39.8079 5470.18 -160.668 9756.99 0.05 
10857 1 -2.38352 0.480451 7.00853 0 0 0 211.173 -90.8963 -9.72284 -1.3029e+07 -4.28052e+08 7.91659e+06 2674.72 -374.634 8996.39 0.05 
1235 1 -2.11671 0.522633 7.00689 0 0 0 290.122 -455.898 -4.37586 -0.412681 -1895.55 -39.8079 4511.19 763.935 -5946.09 0.05 
12193 1 -1.79022 0.483529 7.00999 0 0 0 56167.7 -12901.3 -277.437 -1.15951e+09 2.48008e+08 -3.87542e+08 -5404.56 -65862.1 -751.262 0.05 
13078 1 -1.40166 0.509662 7.00046 0 0 0 87.8483 33.0968 -336.596 -0.0984109 -1442.22 -39.8079 3365.95 2675.63 6567.73 0.05 
12409 1 -0.163606 0.480771 7.00725 0 0 0 -0.114004 -101.165 -0.847909 -473373 -5.06127e+07 -3.54359e+06 137.739 4.14392 -4050.74 0.05 
10883 1 -3.17122 0.530642 7.00855 0 0 0 9.81685 -314.935 -5.3226 257.728 -2251.53 -39.8079 2067.61 116.188 -3022.94 0.05 
3048 1 -3.04696 0.567788 7.00355 0 0 0 2.25766 -312.302 -0.304472 28.4005 -5189.39 -39.8079 3755.63 52.6541 108.242 0.05 
3352 1 -1.51552 0.55096 7.0066 0 0 0 -1.53125 -238.293 -102.196 -0.119955 -3526.99 -39.8079 3792.27 -4411.26 -4471.29 0.05 
13715 1 -1.90666 0.598974 7.00364 0 0 0 96.9589 -108.449 -73.0878 75250.8 -109455 -219427 3347.3 -1884.54 849.302 0.05 
13544 1 -1.42279 0.608325 7.00647 0 0 0 19.4823 -136.185 -80.6504 -1.62511e+07 -4.56912e+08 -1.22311e+07 8193.43 2766.72 3714.71 0.05 
13720 1 -3.03254 0.674174 7.00918 0 0 0 319.89 -342.328 -0.632648 21.8842 -88720.7 -39.8079 2873.36 6100.38 -4091 0.05 
10007 1 -2.65066 0.636171 7.00352 0 0 0 419.021 -316.023 -101.149 -1.58853 -29355.3 -39.8079 5976.28 951.447 -8262.05 0.05 
11300 1 -2.10136 0.638335 7.00815 0 0 0 292.352 -467.748 -2.04535 -0.397998 -31166.6 -39.8079 5402.48 4562.85 -177.64 0.05 
8166 1 -1.99807 0.636758 7.00049 0 0 0 135.114 -217.544 0.157904 -181522 156924 464121 5018.64 3971.04 340.643 0.05 
13670 1 -1.25957 0.663663 7.00022 0 0 0 199.992 -333.29 -0.527241 -0.077856 -64545.6 -39.8079 1498.12 5871.66 -1414.68 0.05 
5082 1 -0.782961 0.647926 7.00524 0 0 0 4.02304 -148.53 -160.368 1.24796e+07 -9.16663e+08 -1.32037e+07 -1016.75 -5503.9 1300.82 0.05 
12413 1 -0.277138 0.636059 7.00055 0 0 0 7.33087 -51.8478 -424.852 -1.09887e+07 2.73139e+08 4.9853e+06 4932.36 6898.61 -2142.38 0.05 