ITEM: TIMESTEP
270000
ITEM: NUMBER OF ATOMS
14052
ITEM: BOX BOUNDS ff pp ff
-3.75 3.75
-1 1
0 10
ITEM: ATOMS id type x y z ix iy iz vx vy vz fx fy fz omegax omegay omegaz radius 
13821 1 -1.59505 -0.510916 5.23222 0 0 0 0.275183 105.576 -171857 -0.138558 1480.44 -39.8079 4511.3 3783.37 -2558.63 0.05 
9412 1 -2.15414 -0.351678 5.22366 0 0 0 1.89464 14.6512 -171840 -0.451333 75.3282 -39.8079 -9278.38 13846.1 5701.27 0.05 
10206 1 -3.22527 0.652596 5.25909 0 0 0 223.625 -338.372 -170107 718.741 -46657.8 -39.8079 5136.14 -10974 -8981.36 0.05 
12795 1 -2.98695 -0.318651 5.30518 0 0 0 496.068 -76.1835 -168732 9.08278 42.6494 -39.8079 -10403.9 3184.62 3882.04 0.05 
13215 1 -0.227487 -0.104768 5.29339 0 0 0 -0.415757 615.338 -169069 0 0.529488 -39.8079 56.5582 22216.6 -6775.57 0.05 
4371 1 -1.71273 0.398322 5.34304 0 0 0 0.978136 -152.086 -167037 -0.173177 -170.844 -39.8079 17513.9 -2599.57 17.1685 0.05 
7183 1 -0.750526 -0.361878 5.35748 0 0 0 -0.775491 310.248 -166448 0 89.9127 -39.8079 -12783.2 -9045.73 -4366.71 0.05 
11397 1 -0.430416 0.754272 5.3509 0 0 0 0.381765 55.0805 -166689 0 -1.49416e+06 -39.8079 9019.46 16450.5 -5556.43 0.05 
13017 1 -1.4873 -0.795479 5.44375 0 0 0 0.909249 571.349 -163153 -0.114108 9.36966e+06 -39.8079 -24189.3 -7438.98 3021.17 0.05 
12202 1 -1.699 -0.493391 5.41334 0 0 0 179.822 82.5003 -164076 -0.168623 1032.62 -39.8079 9591.61 11592.2 3632.57 0.05 
10576 1 -3.27034 0.235721 5.41823 0 0 0 288.58 -171.664 -164748 1804.82 -9.99618 -39.8079 -34639.3 13625.1 1203.32 0.05 
8448 1 -0.483478 -0.800098 5.52654 0 0 0 0.508839 336.501 -159922 0 1.17745e+07 -39.8079 -5624.8 -12451.1 599.922 0.05 
11202 1 -0.850284 0.250352 5.54954 0 0 0 123.447 238.648 -159224 0 -13.0093 -39.8079 -9912.06 27218.7 2176.75 0.05 
13635 1 -1.11898 0.676596 5.5372 0 0 0 1.12983 -248.815 -159669 0 -95606.7 -39.8079 23219.4 1106.72 3265.97 0.05 
11049 1 -2.64919 -0.21847 5.58592 0 0 0 133.741 -5.5785 -157302 -1.58376 7.26949 -39.8079 18.8217 -15907.8 3665.63 0.05 
9405 1 -1.49429 0.136919 5.59504 0 0 0 152.075 67.4589 -157450 -0.115522 -1.28848 -39.8079 -6349.9 -4238.04 -3403.14 0.05 
11924 1 -1.4842 -0.809557 5.63804 0 0 0 0.0425371 -132708 -156145 -0.113487 1.91192e+07 -39.8079 -713.479 -4098.91 8296.87 0.05 
12319 1 -0.0529329 0.160791 5.6034 0 0 0 -0.207636 85.6351 -158386 0 -2.25976 -39.8079 -4133.99 98548.8 -3973.59 0.05 
13254 1 -1.96442 0.529178 5.63617 0 0 0 -0.150736 27.6439 -155765 -0.291484 -2181.35 -39.8079 -7367.64 -23625.4 3565.41 0.05 
12761 1 -0.541566 0.53132 5.62644 0 0 0 0.273628 -327.089 -156298 0 -2284.84 -39.8079 16792.2 -12762.6 -880.602 0.05 
11242 1 -1.16453 0.579268 5.66711 0 0 0 -0.0422323 -200.709 -155175 0 -6809.07 -39.8079 11388 -13157.8 4496.39 0.05 
8681 1 -0.510982 0.824305 5.69372 0 0 0 -0.925695 -725.239 -153783 0 -4.28118e+07 -39.8079 -50699.1 11980.1 1235.89 0.05 
12566 1 -1.89886 0.273879 5.71077 0 0 0 77.5525 -317.074 -153211 -0.252943 -19.6915 -39.8079 -16700 2013.15 5382.68 0.05 
12900 1 -3.48906 0.80293 5.70678 0 0 0 309.839 -512.308 -151839 819194 -1.35804e+07 -39.8079 -23920.6 40304.7 -3110.64 0.05 
10609 1 -1.77685 -0.320804 5.85779 0 0 0 1.51252 -165.219 -147349 -0.196576 44.2563 -39.8079 27672.1 -1753.56 3676.46 0.05 
12455 1 -2.35564 -0.308742 5.82825 0 0 0 1.67213 168.304 -148866 -0.750435 35.9726 -39.8079 7925.15 12355.5 -4376.61 0.05 
4032 1 -1.64334 0.24341 5.82549 0 0 0 0.993796 310.862 -148998 -0.151619 -11.488 -39.8079 9126.22 20299.1 3259.07 0.05 
7677 1 -1.36622 0.537165 5.83226 0 0 0 -0.253296 -136.758 -149126 -0.092706 -2595.39 -39.8079 -7104.88 7447.28 662.835 0.05 
11415 1 -0.877955 0.826386 5.84425 0 0 0 238.893 -875.893 -148344 0 -4.82274e+07 -39.8079 -96357.5 -10605.3 1405.99 0.05 
8255 1 -3.29364 -0.428836 5.87812 0 0 0 175.973 68.4651 -146740 2993.78 297.266 -39.8079 -29492.7 -11449 4606.84 0.05 
13781 1 -2.52484 -0.000988171 5.95101 0 0 0 31.3856 1.24119 -144580 -1.17405 3.93696e-07 -39.8079 5489.15 -18032.1 -657.816 0.05 
12363 1 -3.15193 -0.415333 6.00128 0 0 0 355.596 239.596 -142172 181.516 232.134 -39.8079 8225.56 -3555.31 5490.18 0.05 
7639 1 -0.954662 -0.193325 6.0028 0 0 0 -1.0914 165.7 -141912 0 4.47448 -39.8079 15457.6 21674 1082.4 0.05 
6492 1 -1.69817 0.758599 5.96634 0 0 0 110.525 -196.578 -142339 -0.168354 -1.78474e+06 -39.8079 16696.9 -12891.1 2389.16 0.05 
9165 1 -2.43687 -0.769539 6.0188 0 0 0 69.1415 56.1814 -141097 -0.930265 2.83822e+06 -39.8079 -44682.4 13410.2 -3042.24 0.05 
6487 1 -3.35898 -0.325798 6.01907 0 0 0 396.81 223.839 -141599 14231.5 48.2216 -39.8079 12836.7 -22377.9 -7704.65 0.05 
13278 1 -2.04434 0.815268 6.0466 0 0 0 147.39 -1148.93 -140221 -0.348685 -2.59248e+07 -39.8079 -69159.6 7820.31 8625.9 0.05 
11852 1 -2.1857 -0.539003 6.08141 0 0 0 209.781 264.782 -138928 -0.487325 2702.3 -39.8079 11897.3 19456.2 984.161 0.05 
3777 1 -2.74142 -0.367909 6.10815 0 0 0 477.102 -46658.1 -137498 -1.79747 99.8771 -39.8079 2511.96 -4716.12 -2155.11 0.05 
10766 1 -2.77687 0.0253369 6.08002 0 0 0 274.323 -645.343 -139270 -1.76962 -0.00668304 -39.8079 -41199.7 -4787.51 941.861 0.05 
12207 1 -0.638594 0.44757 6.09481 0 0 0 -0.261889 -17318 -139063 0 -421.769 -39.8079 -20262.1 -18969.9 601.985 0.05 
11713 1 -2.15383 -0.248379 6.12159 0 0 0 187.819 -811.193 -137639 -0.45099 12.5589 -39.8079 12852.1 -8865.71 6541.5 0.05 
9454 1 -2.46724 -0.1219 6.12535 0 0 0 23.8613 148.175 -137789 -1.00853 0.870745 -39.8079 8704.99 5585.32 2765.96 0.05 
3037 1 -0.656185 0.0307033 6.18528 0 0 0 51.9572 -3.79083 -135437 0 -0.0119317 -39.8079 -3964.81 -4136.05 3439.81 0.05 
9289 1 -0.142854 0.319158 6.19564 0 0 0 1.1644 -131.286 -134108 0 -43.0222 -39.8079 -3624.17 -6460.88 4435.75 0.05 
10622 1 -2.53193 -0.515533 6.23145 0 0 0 149.526 3.09112 -132670 -1.19589 1630.84 -39.8079 -19546.9 30099.5 -1973.68 0.05 
9291 1 -0.582916 -0.163814 6.26109 0 0 0 0.867404 -55.9492 -132285 0 2.41614 -39.8079 9808.39 -21308.2 -682.456 0.05 
8417 1 -2.52967 -0.922193 6.31521 0 0 0 9.37304 -61549.3 -129879 -1.18891 1.47566e+11 -39.8079 7807.19 -6700.52 1209.71 0.05 
1298 1 -2.32021 -0.555214 6.3109 0 0 0 79.3297 274.915 -130642 -0.684241 3883.61 -39.8079 5833.24 8835.42 -5717.94 0.05 
6601 1 -3.0681 -0.24118 6.30823 0 0 0 222.059 156.804 -130485 41.3287 11.0356 -39.8079 1511.83 7088.19 3380.35 0.05 
11208 1 -0.922921 0.319225 6.39843 0 0 0 -0.489781 -313.998 -127289 0 -43.072 -39.8079 -18203.6 16205.6 -2992.52 0.05 
10028 1 -3.44802 0.696745 6.3808 0 0 0 386.439 -271.295 -126502 189899 -182080 -39.8079 44558.4 21410.1 2807.04 0.05 
11214 1 -1.91007 0.815924 6.41636 0 0 0 194.512 -920.31 -125393 -0.259068 -2.68632e+07 -39.8079 -70915.1 587.244 -4847.1 0.05 
2112 1 -1.37497 -0.396626 6.46387 0 0 0 111.049 -54.5447 -124158 -0.094076 165.747 -39.8079 1233.91 1872.77 1305.06 0.05 
206 1 -2.29145 -0.761056 6.49017 0 0 0 83.4541 64.0179 -122356 -0.635343 1.97707e+06 -39.8079 -18401.5 -18084.4 1061.65 0.05 
13478 1 -2.79283 0.408091 6.52445 0 0 0 449.637 -45.6356 -121456 -1.71504 -203.601 -39.8079 -10129.5 -26863.5 2476.92 0.05 
8660 1 -2.90093 -0.783784 6.55741 0 0 0 534.999 436.203 -119849 0.390077 5.37275e+06 -39.8079 14477.5 -14760.4 -8301.81 0.05 
12559 1 -2.76566 -0.772501 6.56843 0 0 0 32464 37.8302 -119774 -1.79034 3.23021e+06 -39.8079 -43723.8 -25383.5 -13862.8 0.05 
9911 1 -2.3048 -0.190633 6.557 0 0 0 90.3066 -152.24 -121287 -0.657525 4.24004 -39.8079 -9458.35 6156.14 792.257 0.05 
4730 1 -2.35123 0.573029 6.53902 0 0 0 334.723 -235.051 -121644 -0.741831 -5869.57 -39.8079 20948.1 -7961.38 -4366.16 0.05 
4350 1 -1.94021 -0.598231 6.61989 0 0 0 93.4383 630.457 -117650 -0.276461 10835.4 -39.8079 -12400.1 -42919.9 4136.68 0.05 
13047 1 -1.47142 -0.505421 6.60789 0 0 0 2.72496 121.487 -118930 -0.110974 1320.74 -39.8079 -5261.26 -2525.86 1985.84 0.05 
9947 1 -0.484502 -0.205599 6.63186 0 0 0 0.987894 -342.507 -117774 0 5.69122 -39.8079 -10103.5 12433.8 10082.9 0.05 
7680 1 -0.230753 0.660122 6.62169 0 0 0 -0.0890154 3.51014 -117826 0 -58112.7 -39.8079 -7670.81 -7350.76 -6526.56 0.05 
3659 1 -1.15947 -0.613018 6.64036 0 0 0 5.16334 430.706 -117801 0 15798.8 -39.8079 2733.13 11103 -565.496 0.05 
11268 1 -1.93233 -0.19739 6.73192 0 0 0 1.76208 -81.2142 -114222 -0.271779 4.84964 -39.8079 29864.8 -3618.73 -685.673 0.05 
12040 1 -3.19501 0.096011 6.7081 0 0 0 471.713 -356.738 -114849 401.191 -0.399648 -39.8079 15089.1 17082 -86.3417 0.05 
12192 1 -0.206456 0.180333 6.78719 0 0 0 2.37786 -93.6073 -112466 0 -3.43694 -39.8079 19408.4 -524.192 3250.39 0.05 
7591 1 -0.677 0.714738 6.74683 0 0 0 -0.00815119 68.7833 -113236 0 -335858 -39.8079 14341 -7770.88 7549.9 0.05 
13500 1 -0.507377 0.517008 6.80552 0 0 0 1.06112 118915 -111014 0 -1682.35 -39.8079 38161.3 9002.19 3337.92 0.05 
10939 1 -2.7408 0.640939 6.8438 0 0 0 188.799 39.925 -108479 -1.79711 -33509.6 -39.8079 3906.56 21481.6 603.853 0.05 
9169 1 -1.88572 -0.803453 6.87092 0 0 0 34.9853 72467.4 -109754 -0.245991 1.39463e+07 -39.8079 18361.9 -32131.1 19347.1 0.05 
13249 1 -1.23753 -0.756272 6.87307 0 0 0 199.43 540.74 -107671 0 1.62141e+06 -39.8079 -27288.1 23601.4 -625.568 0.05 
8359 1 -2.18635 0.059282 6.84967 0 0 0 77.7597 -401.521 -109586 -0.488099 -0.0883435 -39.8079 -5819.2 -7486.86 -11905.4 0.05 
8437 1 -3.42202 0.140955 6.87878 0 0 0 584.944 38137.3 -108235 83051.4 -1.42356 -39.8079 19327.7 -34445.8 -4832.02 0.05 
13159 1 -3.56368 0.49099 6.87812 0 0 0 857.653 -477.738 -107355 2.37919e+07 -983.721 -39.8079 -17199.1 -37408.3 -2407.07 0.05 
12444 1 -0.778901 -0.927361 7.00762 0 0 0 3.71798 132067 -109.059 0 2.93399e+11 -39.8079 268.288 -3967.47 -2172.3 0.05 
14013 1 -3.30285 -0.831875 7.00185 0 0 0 0.196623 1489.92 -0.0453038 997123 6.27517e+07 333198 -953.461 4.44784 3784.06 0.05 
12327 1 -1.10087 -0.820104 7.00052 0 0 0 -2.58436 522.06 -0.276952 1.96861e+07 -7.82982e+08 6.51308e+06 -4461.11 21.9037 -87.3503 0.05 
6695 1 -0.781351 -0.826186 7.00087 0 0 0 -0.0401603 607.642 -1.37657 0 4.76763e+07 -39.8079 -55.6923 -2.03844 -99.7471 0.05 
13221 1 -0.460276 -0.828727 6.99964 0 0 0 0.813262 934.617 -271.757 241848 4.91492e+07 1.58504e+06 -9611.45 -3204.02 -543.387 0.05 
13855 1 -1.76235 -0.756335 7.00277 0 0 0 39.7057 49.5039 0.766821 -1.06451e+06 4.94309e+06 1.00728e+06 318.539 600.018 428.012 0.05 
12243 1 -0.704231 -0.751128 7.00116 0 0 0 72.9501 139.177 0.117504 0 1.3157e+06 -39.8079 -5046.83 336.821 -1921.48 0.05 
11028 1 -0.585254 -0.766453 7.00049 0 0 0 -0.984516 238.587 -0.455952 0 2.48464e+06 -39.8079 -3918.86 -7.42684 5029.43 0.05 
5466 1 -0.115563 -0.783296 7.00644 0 0 0 -0.314561 369.575 -1.02519 0 5.25292e+06 -39.8079 -6037.33 -0.618337 -1906.12 0.05 
13426 1 -3.28569 -0.734603 7.00829 0 0 0 232.448 168.662 1.07533 -990931 4.44079e+06 -333278 -1239.89 3586.01 125.635 0.05 
11386 1 -2.48202 -0.717786 7.0069 0 0 0 283.658 259.987 -189.377 -1.04888 373980 -39.8079 1642.02 7663.69 -797.809 0.05 
11448 1 -3.35305 -0.659181 7.00548 0 0 0 340.223 0.482634 -0.220019 12232.8 56525.6 -39.8079 0.00307506 769.836 372.976 0.05 
9043 1 -2.27817 -0.662276 7.00116 0 0 0 336.617 0.543803 -4.94751 -0.614132 61936.6 -39.8079 234.082 1460.24 -132.83 0.05 
9387 1 -1.88635 -0.63519 7.00127 0 0 0 364.376 132.857 -205.311 -2.14946e+06 6.42051e+07 843343 -8198.88 -3050.79 -3899.59 0.05 
13214 1 -1.70325 -0.641873 7.00819 0 0 0 338.486 225.6 -1.765 2.62384e+07 9.05176e+08 2.73565e+07 -3341.43 594.586 5507.92 0.05 
1680 1 -1.26734 -0.655605 7.00952 0 0 0 1.11544 78231.6 -244.157 1.33577e+07 -8.8221e+08 9.16186e+06 -50152.7 3436.44 -7852.56 0.05 
13698 1 -0.546459 -0.635612 7.00078 0 0 0 362.541 175.252 -6.73571 -766831 7.46664e+07 1.56532e+06 -3029.96 2470.29 2251.96 0.05 
10082 1 -0.0747391 -0.644614 7.00175 0 0 0 0.980887 -56768.9 -2.01582 -622759 5.66596e+08 -1.46437e+07 -58480.5 90.6323 -31478 0.05 
3890 1 -3.45659 -0.604567 7.00435 0 0 0 444.383 0.111279 -0.0222677 253335 12714.4 -39.8079 1.2815 3947.3 792.38 0.05 
14036 1 -2.37388 -0.628165 7.00073 0 0 0 394.27 174.651 -77.2311 -0.787276 23594 -39.8079 -5492.48 5111.42 -5038.93 0.05 
7434 1 -1.82357 -0.623435 7.00842 0 0 0 22.8852 10344.8 -5.09396 5.16748e+06 -1.30736e+08 812671 6181.96 582.893 -474.066 0.05 
13329 1 -1.33053 -0.595952 7.00407 0 0 0 431.245 63.7719 -0.308665 -1.67496e+07 3.93346e+08 -8.88637e+06 -1487.7 4215.69 -10665.5 0.05 
5912 1 -0.357788 -0.600559 7.00151 0 0 0 424.776 338.877 -2.75662 -600480 6.58469e+07 1.05704e+06 -5349.05 4401.44 4466.6 0.05 
11316 1 -2.81269 -0.558555 7.00168 0 0 0 292.357 136.154 -3.91015 -3.35748e+06 8.20868e+07 -702536 -2505.68 4676.47 -4026.4 0.05 
11479 1 -2.45949 -0.535937 7.00407 0 0 0 299.364 220.074 -309.647 -0.987967 2526.48 -39.8079 -3219.48 -6393.67 6509.08 0.05 
12594 1 -0.815325 -0.549797 7.0068 0 0 0 303.05 -6.32209 -1.26149 113932 80284.5 -300893 -30.9188 4241.18 -302.903 0.05 
10556 1 -0.710132 -0.541202 7.00977 0 0 0 309.131 159.866 0.12968 -36017.8 -757250 1.14224e+06 -5319 3807.09 2927.5 0.05 
9307 1 -0.260858 -0.535443 7.00187 0 0 0 291.105 479.219 1.1677 0 2499.38 -39.8079 -3830.5 4721.73 1936.9 0.05 
12205 1 -3.12113 -0.503574 7.00398 0 0 0 228.728 -75.384 -77.3648 962087 -55006.6 -599273 -3167.83 2294.56 -903.912 0.05 
7966 1 -2.02299 -0.520336 7.00054 0 0 0 271.21 261.383 -1.14491 -0.332157 1805.13 -39.8079 -5905.43 4623.78 3846.23 0.05 
10984 1 -1.50384 -0.506345 7.00251 0 0 0 247.243 161.674 -390.936 136362 195174 -829659 -3878.35 4344.81 494.479 0.05 
13525 1 -1.37273 -0.491756 7.00935 0 0 0 219.737 325.699 -54.319 -1.80411e+06 -773586 -96678.7 -3494.17 1949.24 4087.05 0.05 
5517 1 -3.46975 -0.433783 6.99997 0 0 0 7035.42 -4.6417 -2.59056 -6.48786e+07 1.38996e+06 853405 10.3957 -3749.28 4743.05 0.05 
6295 1 -3.22334 -0.473458 7.00787 0 0 0 126.009 164.075 -206.494 -2.09986e+06 1.2357e+08 -1.02822e+06 -6247.7 411.424 5436.78 0.05 
13644 1 -2.15822 -0.468174 7.00097 0 0 0 110.369 295.128 -157.608 -0.455796 626.075 -39.8079 3610.94 -316.962 8389.43 0.05 
7418 1 -1.68383 -0.450914 6.9992 0 0 0 0.514568 2.6154 -265.136 -0.163765 449.349 -39.8079 5489.76 -2169.14 -97.8091 0.05 
3483 1 -0.639787 -0.471757 7.0094 0 0 0 131.793 60.9466 -1.79009 -1.04681e+06 4.26061e+08 -5.10058e+06 -1602.1 1733.52 2128.44 0.05 
6072 1 -3.06717 -0.415658 7.00596 0 0 0 0.777207 -120.627 -100.472 40.6607 233.507 -39.8079 -2648.17 -4321.84 -1513.01 0.05 
11339 1 -2.07381 -0.372914 7.0055 0 0 0 2.34727 428.745 -117.105 -0.373188 109.011 -39.8079 -6443.07 -4632.08 -1266.77 0.05 
12492 1 -1.42302 -0.404327 7.00884 0 0 0 -0.51558 284.147 -257.148 -0.10206 190.258 -39.8079 -2755.5 5907.27 4906.39 0.05 
2539 1 -1.1615 -0.407865 7.0089 0 0 0 0 0.0013492 -0.00026487 0 202.774 -39.8079 0 0 0 0.05 
6261 1 -0.77594 -0.372344 6.99858 0 0 0 0.305139 1.68444 -309.061 0 107.929 -39.8079 -1149.23 3748.88 41.1164 0.05 
11157 1 -0.354934 -0.412296 7.00165 0 0 0 -0.363799 253.588 -0.0297966 0 219.682 -39.8079 -2619.93 -3.18921 5536.32 0.05 
12860 1 -0.24001 -0.409387 7.00328 0 0 0 -1.54241 261.37 0.278196 -3.28018e+06 1.22266e+08 -466340 -2153.01 -9.98843 -4408.75 0.05 
12032 1 -2.87983 -0.333618 6.94968 0 0 0 289.056 -84.6472 -104760 2.78801e+07 7.90167e+06 5.89701e+08 4642.5 -27661.2 3146.96 0.05 
3298 1 -2.40113 -0.351811 7.00675 0 0 0 65.2208 251.121 -207.485 -0.846046 75.5018 -39.8079 -7407.33 4969.75 -8391.18 0.05 
13080 1 -1.63038 -0.326657 7.0038 0 0 0 157.414 52.338 0.25779 4.21711e+08 1.52372e+07 -4.16913e+06 -69.9347 1035.64 -1177.44 0.05 
11927 1 -1.26368 -0.326572 7.00107 0 0 0 0.226221 -336.624 -0.503271 -0.0783714 48.8674 -39.8079 1481.56 0.0700482 588.26 0.05 
246 1 -1.97698 -0.307525 7.00776 0 0 0 260.68 227.106 -0.510814 -0.299665 35.2279 -39.8079 -4401.5 1334.13 -10537.5 0.05 
13413 1 -0.751368 -0.272278 7.00855 0 0 0 1.50719 4.02399 -73.1668 320945 1.8984e+06 -87711.9 3130.06 58.8941 27.3589 0.05 
13443 1 -2.62492 -0.235937 7.00582 0 0 0 313.471 235.226 -303.185 -1.50307 10.0355 -39.8079 -8922.86 -1780.99 4818.83 0.05 
4622 1 -1.82161 -0.211194 7.01014 0 0 0 247.524 -333.481 -1.49572 -0.215252 6.33556 -39.8079 1618.76 921.204 5554.22 0.05 
11055 1 -1.58713 -0.223947 7.00949 0 0 0 137.158 250.595 0.717569 5.30846e+08 4.47916e+06 -2.7124e+06 -5440.08 520.128 5449.34 0.05 
9031 1 -1.07493 -0.255677 7.00495 0 0 0 -0.349827 0.558167 -0.133444 0 14.3011 -39.8079 -36.4954 -0.289483 8.36268 0.05 
13964 1 -0.207464 -0.237436 6.96439 0 0 0 -2.79095 -435.131 -104968 2.85022e+07 2.42415e+06 9.49394e+08 -4402.99 -11375.1 -778.862 0.05 
10863 1 -3.53057 -0.176203 7.0064 0 0 0 4510.89 -6.23622 -282.336 -1.13549e+08 1.77565e+07 -1.30561e+09 -4594.01 -1565.14 5208.29 0.05 
11894 1 -3.17362 -0.176277 7.00156 0 0 0 96.2547 3.66263 -2.10437 116739 1.48349e+06 -917092 -80.7739 694.471 3993.43 0.05 
7242 1 -1.01376 -0.15791 7.00686 0 0 0 0.575333 0.379947 -184.543 0 2.11845 -39.8079 3269.03 5355.09 3.02773 0.05 
12122 1 -0.561729 -0.185415 6.99976 0 0 0 -2.45409 -94.38 -441.775 -8.44848e+06 -2.73211e+08 -1.83174e+06 -691.283 2297.35 -1501.56 0.05 
13658 1 -0.159217 -0.166413 6.99979 0 0 0 0.398939 -113.679 -195.962 -8.25747e+06 -1.31043e+07 -4.37724e+08 721.985 -5685.19 -4746.47 0.05 
6590 1 -3.56471 -0.132701 6.96365 0 0 0 676.564 133.596 -105361 6.79012e+07 -2.33879e+07 6.41198e+08 7288.34 -36163.5 7968.85 0.05 
12127 1 -2.82774 -0.110245 7.00641 0 0 0 0.149022 -17.5509 -51.8904 -1.4512 0.625048 -39.8079 -1219.28 2152.68 -731.6 0.05 
9303 1 -0.349096 -0.120963 6.96301 0 0 0 0.554595 122.489 -105139 6.78107e+06 -1.01222e+07 3.59755e+08 -13902.7 -5130.63 933.216 0.05 
6839 1 -2.93632 -0.0589178 7.0006 0 0 0 91.1857 -7.34026 -0.64515 2.58914 0.0866845 -39.8079 -34.7173 3569.02 -2026.01 0.05 
9952 1 -1.27525 -0.0723728 7.0053 0 0 0 83.8854 -335.815 -0.280645 -0.0798434 0.16382 -39.8079 779.265 3131.86 -3371.85 0.05 
13065 1 -0.446806 -0.0703968 7.00084 0 0 0 0.0554249 -110.04 -0.227475 0 0.150297 -39.8079 1281.46 -8.67585 4473.38 0.05 
11753 1 -2.68388 -0.00863758 7.0048 0 0 0 155.276 36.9117 -133.317 164945 254343 1.06796e+06 1437.86 1692.48 5394.5 0.05 
13038 1 -2.38389 -0.0456499 7.01027 0 0 0 161.483 206.568 -1.28014 452166 -235516 -647163 -2270.29 5515.1 -8047.95 0.05 
9721 1 -2.2131 -0.0449298 7.00071 0 0 0 122.864 -3.60597 0.173465 -0.52138 0.0378333 -39.8079 90.524 4807.09 -1539.58 0.05 
11177 1 -1.65884 -0.0167469 7.00187 0 0 0 143.423 -18.857 -1.15713 -162082 -340938 -603176 884.578 5522.5 84.8737 0.05 
10773 1 -0.273206 -0.0422641 7.00134 0 0 0 0.335501 276.649 -136.982 0 0.0314108 -39.8079 1679.57 3050.63 -4799.96 0.05 
9438 1 -3.52413 0.0218998 7.00379 0 0 0 4799.77 3.95072 1.47918 -4.33981e+07 -855430 -937809 -97.9993 1582.33 -1983.24 0.05 
1157 1 -1.0533 0.0220048 7.00782 0 0 0 115.779 0.284654 -0.332857 0 -0.00437035 -39.8079 -34.9352 4161.11 2477.71 0.05 
2032 1 -0.422475 0.0502251 7.00115 0 0 0 -0.712182 -69.4904 -2.17808 -1.56584e+06 -2.08327e+08 -8.22566e+06 944.113 -8.80431 -26.405 0.05 
5587 1 -2.27474 0.05825 7.00871 0 0 0 49.1615 0.161683 -94.3527 -0.608775 -0.0836983 -39.8079 -74.9332 5912.01 -1512.14 0.05 
4228 1 -2.03848 0.0883634 7.00418 0 0 0 117.546 19.011 -7.78805 -3.93328e+06 4.23024e+07 -1.22509e+07 -319.624 4527.53 -1260.93 0.05 
5683 1 -1.90258 0.0575086 7.00453 0 0 0 25.3478 -107.675 -0.415037 1.33988e+06 -41153.6 -103617 842.469 936.866 -5233.17 0.05 
11421 1 -3.52608 0.155012 7.0034 0 0 0 4679.1 -87.4104 -1.44838 -1.6225e+07 -1.33297e+08 3.48712e+06 2882.82 962.511 2929.88 0.05 
1592 1 -1.43931 0.118336 7.00788 0 0 0 175.767 236.509 -226.107 -0.104956 -0.789038 -39.8079 -3519.82 91.4354 5863.85 0.05 
3720 1 -0.322293 0.114105 7.00093 0 0 0 -0.642987 314.366 -1.08917 0 -0.69972 -39.8079 -3270.22 -0.33877 1866.9 0.05 
11518 1 -3.24939 0.185993 7.00283 0 0 0 5.29806 -119.273 -230.916 2.28912e+06 -1.72105e+08 1.14896e+06 -4295.16 -2609.18 3122.72 0.05 
8568 1 -3.02181 0.189306 7.00797 0 0 0 1.26804 -192.696 -0.129841 17.954 -4.12838 -39.8079 -835.018 12.1587 1442.62 0.05 
11832 1 -2.59856 0.185875 7.00213 0 0 0 1.80239 -51.1466 -1.64204 3.64799e+06 3.70321e+07 -1.07895e+07 1268.47 7.25058 1940.79 0.05 
11037 1 -1.58287 0.169703 7.00207 0 0 0 73.8672 -0.0244444 -118.621 -0.135488 -2.74631 -39.8079 -1007.31 3774.08 1809.56 0.05 
5472 1 -1.06037 0.18504 7.00206 0 0 0 -0.480115 0.438008 -0.479842 0 -3.78625 -39.8079 -36.5086 0.40685 1.12942 0.05 
8636 1 -0.44946 0.158925 7.00616 0 0 0 50.1043 -376.595 -3.09208 5.77764e+08 -1.75999e+08 -1.61999e+06 4053.1 1861.68 2686.04 0.05 
13760 1 -3.58256 0.254204 7.00092 0 0 0 1477.04 -181.679 -0.641787 6.11793e+07 245322 -748711 5954.84 1768.76 22.1149 0.05 
10467 1 -3.39086 0.224942 7.00623 0 0 0 1.33994 -84.9628 0.559847 33433.6 -8.20168 -39.8079 894.762 -12.6496 -3680.03 0.05 
3741 1 -1.25446 0.224572 7.0102 0 0 0 0.444528 -331.801 -0.221725 -0.0772227 -8.14559 -39.8079 -7.20369 -1.50365 1997.48 0.05 
1859 1 -2.70066 0.267777 6.96584 0 0 0 110.107 -565.758 -104601 1.29216e+07 -256976 8.23077e+08 -5636.12 4657.52 5790.89 0.05 
6890 1 -2.16858 0.310782 6.99995 0 0 0 129.826 244.243 -103691 -1.21237e+07 -8.49924e+06 1.72458e+09 -887.023 14425.2 -3032.14 0.05 
6836 1 -0.737035 0.275079 7.00358 0 0 0 0.666235 5.35059 -0.280513 0 -20.1076 -39.8079 -128.411 -2.73545 -15.7716 0.05 
5181 1 -3.31197 0.345631 7.00142 0 0 0 340.176 -308.945 -1.13239 4533.41 -67.8509 -39.8079 3858.65 5791.69 -7304.2 0.05 
5457 1 -2.83024 0.322908 7.00487 0 0 0 219.112 0.624123 -65.9053 -1.42225 -45.885 -39.8079 -2818.02 6535.62 -4939.71 0.05 
4861 1 -2.72413 0.353588 7.01004 0 0 0 391.393 -163.527 -188.68 1.83996e+06 -9.39215e+06 -2.43548e+08 4498.75 3041.66 -10379.1 0.05 
9264 1 -2.58786 0.318601 7.01012 0 0 0 195.309 -97.3733 -1.0011 -1.37766 -42.6126 -39.8079 2085.51 5294.97 -196.299 0.05 
7879 1 -2.47326 0.352619 7.0101 0 0 0 383.677 63.2495 -1.19799 -1.02478 -76.5651 -39.8079 2402.55 5587.35 -4912.58 0.05 
13743 1 -2.13872 0.356311 7.00106 0 0 0 216.263 5.78458 -123.045 794320 613247 -6.81096e+08 2732.65 -1483.27 -6019.86 0.05 
12717 1 -1.96507 0.366403 7.00125 0 0 0 246.24 -113.976 -0.464154 -193614 132584 -214416 2663.53 316.402 -2059.91 0.05 
5648 1 -1.35464 0.329469 7.00356 0 0 0 0.00766452 -36.7053 -0.785895 -96414.5 128607 -18648.9 3939.13 -13.7023 -8081.02 0.05 
13166 1 -1.70253 0.419118 7.00303 0 0 0 70456 273.211 -5.01419 -1.26319e+09 -2.34729e+07 789980 -913.971 -65965.9 -28991.1 0.05 
11062 1 -0.771384 0.402326 7.00205 0 0 0 0.699002 3.07616 -0.887195 0 -183.542 -39.8079 -144.685 -1.31459 215.002 0.05 
12140 1 -0.470411 0.379324 7.00325 0 0 0 0.000543864 -290.737 -142.392 0 -121.993 -39.8079 10358.1 -2577.21 -2300.36 0.05 
12315 1 -3.42104 0.441151 6.96286 0 0 0 197.843 122.494 -105660 2.66584e+07 2.90156e+06 4.86758e+08 29277.8 -39294.2 7801.19 0.05 
4450 1 -3.09604 0.43444 7.00507 0 0 0 321.328 -247.383 -0.462102 6.66297e+06 -8.60931e+07 -726793 2468.87 -96.641 -1702.66 0.05 
13401 1 -1.49074 0.445231 7.00615 0 0 0 -1.68994 -314.956 -141.367 587802 -1.21139e+08 5.91406e+06 9945.33 437.464 -1774.74 0.05 
13997 1 -1.31737 0.435775 7.0015 0 0 0 0.291073 -246.317 -0.19785 -0.0855024 -338.065 -39.8079 4166.26 15.5116 -8390.29 0.05 
12657 1 -1.2116 0.457211 7.00114 0 0 0 0.149443 -231.993 -0.112378 0 -506.67 -39.8079 996.856 -2.47231 6286.94 0.05 
13330 1 -0.0551554 0.42702 7.00397 0 0 0 0.898905 -322.026 -0.339141 701195 495965 -557662 -284.031 0.453374 2998.23 0.05 
12618 1 -3.57941 0.483579 7.00025 0 0 0 1244.39 -183.382 -327.964 5.20746e+07 1.37749e+06 -856319 4939.75 3152.63 1945.45 0.05 
2817 1 -2.63494 0.482036 7.00438 0 0 0 185.563 -233.513 -1.24103 -1.53673 -822.271 -39.8079 5470.18 -160.668 9756.99 0.05 
10857 1 -2.38457 0.480225 7.00858 0 0 0 208.259 69.192 -8.50751 -0.809793 -793.237 -39.8079 775.796 -375.938 4610.69 0.05 
1235 1 -2.11812 0.524492 7.00692 0 0 0 211.394 -120.234 -1.0725 4.02945e+08 -7.46641e+07 -7.82503e+06 1685.99 515.28 -5991.97 0.05 
13078 1 -1.40172 0.509496 7.00195 0 0 0 -1.33678 32.9329 -263.241 -0.0984201 -1437.26 -39.8079 638.305 4515.73 2594.61 0.05 
12409 1 -0.163606 0.481225 7.00725 0 0 0 0.00492049 -89.4909 -0.0196621 0 -809.12 -39.8079 -239.633 0.847826 -3950.1 0.05 
10883 1 -3.17126 0.532085 7.00857 0 0 0 5.5621 -233.85 -4.41096 6.35741e+06 -1.1111e+08 -446030 1521.11 78.9229 -2255.1 0.05 
3048 1 -3.04697 0.569349 7.00355 0 0 0 2.25762 -312.295 -0.304423 28.4063 -5382.55 -39.8079 3755.63 52.6541 108.242 0.05 
4674 1 -1.6014 0.56503 6.98934 0 0 0 168.776 84.108 -103845 -7.89055e+06 -7.67083e+06 9.93884e+08 25287.3 -8345.12 9905.57 0.05 
3352 1 -1.51551 0.552152 7.00711 0 0 0 -0.66739 -238.445 -71.5434 -7.89433e+06 2.62554e+06 -4.82151e+08 3987.85 -3110.18 -4470.15 0.05 
13715 1 -1.90688 0.599455 7.004 0 0 0 -3.37712 -85.4127 -73.4587 -71316 -177703 -105025 3298.61 -2205.44 -3615.45 0.05 
13544 1 -1.42288 0.60857 7.00686 0 0 0 0.113371 -40.1202 -76.1386 -0.102036 -14084 -39.8079 7605.27 2167.8 6315.21 0.05 
13720 1 -3.03414 0.675885 7.00918 0 0 0 319.89 -342.216 -0.632599 22.5321 -93526.9 -39.8079 2873.36 6100.38 -4091 0.05 
10007 1 -2.65276 0.637751 7.00403 0 0 0 419.021 -315.986 -101.149 -1.5953 -30665.8 -39.8079 5976.28 951.447 -8262.05 0.05 
11300 1 -2.10283 0.640526 7.00817 0 0 0 288.392 -196.289 -1.88827 2.21405e+08 -9.29779e+08 -2.14291e+07 3135.22 4559.2 -3444.75 0.05 
8166 1 -1.99875 0.637846 7.00049 0 0 0 135.354 -218.048 -0.349787 -185760 572683 333055 5029.21 3994.69 320.41 0.05 
13670 1 -1.26 0.665331 7.00023 0 0 0 0.224886 -333.308 -0.406564 -0.0779096 -67842.2 -39.8079 1502.69 -0.408066 1134.51 0.05 
5082 1 -0.782969 0.648032 7.00553 0 0 0 3.40142 -166.168 -4.29082 1.52993e+07 9.31597e+08 -1.69659e+07 1264.21 4.11623 1484.17 0.05 
12413 1 -0.277156 0.63681 7.00242 0 0 0 1.2986 -147.832 -247.813 1.46735e+06 -6.71402e+07 -1.81691e+06 22.2065 5574.84 -72.7222 0.05 
1098 1 -0.0776927 0.648022 7.00135 0 0 0 -0.280266 -342.432 -0.0682874 0 -40922.4 -39.8079 97.9772 0.0352206 -447.284 0.05 
11065 1 -0.676984 0.687256 7.00102 0 0 0 0.221229 -1.8371 -308.977 18826.2 -1.16189e+06 -120199 -3993.87 9.1635 -3.31467 0.05 
13682 1 -3.49791 0.778161 6.99814 0 0 0 224.302 -171.282 -367.956 8.59858e+06 -3.63683e+07 -2.98448e+06 -1451.64 8133.29 -1917.93 0.05 
13918 1 -3.39528 0.767728 7.00239 0 0 0 334.531 -133.561 -97.5622 -47278.9 -1.29361e+07 -902138 4816.64 5029.14 -7747.13 0.05 
8765 1 -2.64546 0.741246 7.00021 0 0 0 458.574 -291.223 0.209088 -1.57157 -891218 -39.8079 6231.04 8990.58 8896.36 0.05 
5525 1 -1.71752 0.758953 7.00207 0 0 0 262.943 -104.355 -325.987 -1.42546e+06 -3.07162e+07 -1.6701e+06 1687.75 10885.3 444.947 0.05 
13280 1 -1.5821 0.75193 7.0024 0 0 0 269.693 -38.8685 -1.95649 489605 -1.414e+07 -1.22646e+06 320.923 8142.29 424.588 0.05 
1151 1 -1.13884 0.740777 7.0058 0 0 0 -0.420128 -36.6006 -200.524 -679864 -8.50236e+06 -965725 6353.53 1931.76 -1311.22 0.05 
12807 1 -0.281137 0.747081 7.00111 0 0 0 1.18834 -319.316 -5.77309 -546213 -4.92438e+07 -753553 3017.06 -23.4827 1497.6 0.05 
7302 1 -3.5103 0.798953 7.00619 0 0 0 407.186 -3597.78 -299.558 6.34211e+06 4.96266e+07 44267.7 1826.66 4801.59 -161.824 0.05 
12715 1 -3.09116 0.792449 7.0052 0 0 0 531.314 -600.606 -2.01429 -596129 -1.02719e+07 299477 4934.95 7232.44 2362.45 0.05 
12133 1 -2.35304 0.802187 7.00891 0 0 0 160.649 -3490.07 1.44958 1.2093e+06 -2.68941e+08 -763829 -2154.07 4356.45 1892.46 0.05 
12721 1 -0.945828 0.816844 7.00737 0 0 0 -0.421496 -2721.67 -195.24 -375054 -1.37043e+07 1.59158e+06 4896.99 6467.52 -803.536 0.05 
12971 1 -0.488415 0.819641 7.00669 0 0 0 0.411883 -859.162 -376.714 -129132 -3.15389e+07 -571916 5302.52 -1727.56 -646.273 0.05 
8282 1 -0.132561 0.799803 7.00935 0 0 0 0.0259048 -514.741 -0.159546 0 -1.16023e+07 -39.8079 5218.66 8.24512 -5141.88 0.05 
10884 1 -1.81841 -0.937181 7.01932 0 0 0 3.71294 -14136 -173.998 -0.213847 1.25397e+12 -39.8079 -21245.7 -1931.49 -7614.47 0.05 
196 1 -3.09803 -0.828292 7.01094 0 0 0 -0.0161182 1932.38 -0.272321 69.8784 5.38563e+07 -39.8079 -5275.77 6.94891 1988.28 0.05 
12129 1 -2.97067 -0.832128 7.01217 0 0 0 361.791 -130846 -4.86602 2.55665e+07 1.6276e+09 1.57552e+07 2294.55 2593.97 -8123.24 0.05 
5328 1 -2.50442 -0.81122 7.04125 0 0 0 24.3867 530.49 -132.569 -1.11284 2.08719e+07 -39.8079 -6425.42 5100.7 6678.67 0.05 
2998 1 -2.28315 -0.806296 7.03389 0 0 0 6.60802 3301.56 -220.239 1.85484e+06 -5.08551e+06 -1.16123e+06 -6344.61 -874.886 1213.32 0.05 
8924 1 -2.1772 -0.827626 7.04028 0 0 0 1.27586 1047.22 0.288448 661962 4.96226e+07 343518 93.983 -17.4651 5876.76 0.05 
3847 1 -1.89517 -0.800099 7.02174 0 0 0 -0.925744 442.212 -180.929 -6.68608e+06 2.0841e+07 -7.40321e+08 -1232.06 728.499 -2112.52 0.05 
11919 1 -1.71573 -0.830761 7.03997 0 0 0 144.919 963.037 -1.05474 1.66886e+06 5.79934e+07 -1.17775e+06 4230.79 4577.06 6715.46 0.05 
7511 1 -1.59534 -0.817873 7.05581 0 0 0 38.6289 787.313 -0.212236 -0.138634 2.9881e+07 -39.8079 1099.78 831.522 -1462.11 0.05 
7214 1 -1.3742 -0.821345 7.04019 0 0 0 52.8846 783.202 0.118411 -0.0939532 3.62235e+07 -39.8079 1205.58 1709.53 -4107.52 0.05 
2483 1 -1.23788 -0.798299 7.02299 0 0 0 -0.165379 426.589 -275.227 0 1.07653e+07 -39.8079 -6317.93 -15.7066 930.122 0.05 
10704 1 -1.04129 -0.840183 7.01942 0 0 0 5.30446 -131400 -0.60343 9.48366e+06 2.33694e+09 1.43404e+07 255.38 20.5723 2228.92 0.05 
4837 1 -3.57335 -0.776988 7.0404 0 0 0 2165.47 236.957 9.95754 1.43213e+07 3.21922e+07 3.29395e+06 -2940.9 7242.76 4820.66 0.05 
3315 1 -3.52057 -0.780415 7.04713 0 0 0 379.591 4442.01 4.10506 5.87029e+07 -7.31801e+07 -649848 -1143.56 -84.1178 201.541 0.05 
13799 1 -3.51029 -0.788257 7.01333 0 0 0 283.909 316.567 -20.8949 5.82233e+07 5.5835e+07 -1.70295e+06 -4279.93 4459.19 1540.92 0.05 
9812 1 -3.44181 -0.782642 7.04745 0 0 0 7660.23 4251.26 7.10058 -2.78737e+08 -8.69121e+07 2.247e+06 -743.71 -851.849 8638.66 0.05 
3503 1 -3.40093 -0.761962 7.03289 0 0 0 90.6878 5255.91 3.60074 6.0161e+07 -9.01289e+07 -2.74711e+06 503.234 597.235 766.477 0.05 
10435 1 -3.40086 -0.78079 7.02069 0 0 0 163.892 278.923 -10.5589 5.42026e+07 6.95717e+07 -3.54341e+06 -1660.08 4459.66 -2548.84 0.05 
1442 1 -3.17457 -0.756651 7.02101 0 0 0 136.387 290.514 -2.49934 1.10964e+06 -3.29819e+08 172258 -136.266 5264.1 -6425.5 0.05 
9943 1 -2.93125 -0.767786 7.01319 0 0 0 146.01 244.669 -558.967 -3.08904e+07 -7.72789e+08 -826965 -64.7113 12802.7 3239 0.05 