ITEM: TIMESTEP
370000
ITEM: NUMBER OF ATOMS
14052
ITEM: BOX BOUNDS ff pp ff
-3.75 3.75
-1 1
0 10
ITEM: ATOMS id type x y z ix iy iz vx vy vz fx fy fz omegax omegay omegaz radius 
13821 1 -1.59504 -0.50986 3.51365 0 0 0 0.275183 105.58 -171857 -0.138557 1448.2 -39.8079 4511.3 3783.37 -2558.63 0.05 
9412 1 -2.15412 -0.351532 3.50526 0 0 0 1.89464 14.6514 -171840 -0.451312 75.1374 -39.8079 -9278.38 13846.1 5701.27 0.05 
10206 1 -3.22304 0.649212 3.55803 0 0 0 223.627 -338.481 -170107 687.836 -42335.8 -39.8079 5136.14 -10974 -8981.36 0.05 
12795 1 -2.98198 -0.319413 3.61786 0 0 0 496.068 -76.1834 -168732 8.18406 43.2113 -39.8079 -10403.9 3184.62 3882.04 0.05 
13215 1 -0.227491 -0.0986151 3.6027 0 0 0 -0.415757 615.338 -169069 0 0.43549 -39.8079 56.5582 22216.6 -6775.57 0.05 
7183 1 -0.750534 -0.358776 3.693 0 0 0 -0.775491 310.248 -166448 0 85.1924 -39.8079 -12783.2 -9045.73 -4366.71 0.05 
4371 1 -1.71272 0.396801 3.67266 0 0 0 0.978136 -152.086 -167037 -0.173174 -166.266 -39.8079 17513.9 -2599.57 17.1685 0.05 
11397 1 -0.430412 0.754804 3.68401 0 0 0 0.381765 51.3578 -166689 0 -1.52692e+06 -39.8079 9019.46 16450.5 -5556.43 0.05 
12202 1 -1.6972 -0.492566 3.77258 0 0 0 179.822 82.5028 -164076 -0.168038 1015.52 -39.8079 9591.61 11592.2 3632.57 0.05 
10576 1 -3.26746 0.234004 3.77075 0 0 0 288.584 -171.664 -164748 1697.79 -9.68838 -39.8079 -34639.3 13625.1 1203.32 0.05 
13017 1 -1.48729 -0.78966 3.81222 0 0 0 0.909248 591.485 -163153 -0.114106 7.07737e+06 -39.8079 -24189.3 -7438.98 3021.17 0.05 
8448 1 -0.483473 -0.796596 3.92732 0 0 0 0.508839 363.159 -159922 0 9.8971e+06 -39.8079 -5624.8 -12451.1 599.922 0.05 
13635 1 -1.11897 0.674107 3.94051 0 0 0 1.12983 -249.042 -159669 0 -88537.9 -39.8079 23219.4 1106.72 3265.97 0.05 
11202 1 -0.84905 0.252739 3.9573 0 0 0 123.447 238.648 -159224 0 -13.5741 -39.8079 -9912.06 27218.7 2176.75 0.05 
11049 1 -2.64785 -0.218525 4.0129 0 0 0 133.741 -5.57848 -157302 -1.57941 7.2771 -39.8079 18.8217 -15907.8 3665.63 0.05 
9405 1 -1.49277 0.137751 4.02055 0 0 0 152.194 300.962 -157447 -0.115212 -1.31547 -39.8079 -12606.9 -4243.76 -2423.02 0.05 
12319 1 -0.052935 0.161648 4.01954 0 0 0 -0.207636 85.6351 -158386 0 -2.3032 -39.8079 -4133.99 98548.8 -3973.59 0.05 
11924 1 -1.4842 0.226394 4.0766 0 0 0 -0.0764034 132476 -156147 -0.113487 -8.42507 -39.8079 -6970.43 -4104.63 9276.99 0.05 
13254 1 -1.96443 0.529454 4.07852 0 0 0 -0.150737 27.6385 -155765 -0.291485 -2194.41 -39.8079 -7367.64 -23625.4 3565.41 0.05 
12761 1 -0.541563 0.528049 4.06346 0 0 0 0.273628 -327.094 -156298 0 -2128.91 -39.8079 16792.2 -12762.6 -880.602 0.05 
11242 1 -1.16453 0.57726 4.11536 0 0 0 -0.0422323 -200.725 -155175 0 -6489.98 -39.8079 11388 -13157.8 4496.39 0.05 
8681 1 -0.510991 0.816592 4.15589 0 0 0 -0.925695 -811.212 -153783 0 -2.78591e+07 -39.8079 -50699.1 11980.1 1235.89 0.05 
12566 1 -1.89808 0.270708 4.17866 0 0 0 77.5525 -317.074 -153211 -0.252526 -18.631 -39.8079 -16700 2013.15 5382.68 0.05 
12900 1 -3.48595 0.797653 4.1884 0 0 0 311.743 -541.737 -151839 727676 -1.04266e+07 -39.8079 -23920.6 40304.7 -3110.64 0.05 
12455 1 -2.35562 -0.307059 4.33958 0 0 0 1.67213 168.304 -148866 -0.750402 34.9467 -39.8079 7925.15 12355.5 -4376.61 0.05 
4032 1 -1.64333 0.246518 4.33551 0 0 0 0.993796 310.862 -148998 -0.151616 -12.1475 -39.8079 9126.22 20299.1 3259.07 0.05 
7677 1 -1.36622 0.535798 4.34099 0 0 0 -0.253297 -136.765 -149126 -0.0927064 -2518.82 -39.8079 -7104.88 7447.28 662.835 0.05 
11415 1 -0.875566 0.817122 4.36082 0 0 0 238.893 -968.768 -148344 0 -2.86769e+07 -39.8079 -96357.5 -10605.3 1405.99 0.05 
8255 1 -3.29188 -0.428152 4.41072 0 0 0 175.98 68.4658 -146740 2879.19 293.535 -39.8079 -29492.7 -11449 4606.84 0.05 
10609 1 -1.77684 -0.322456 4.3843 0 0 0 1.51252 -165.219 -147349 -0.19657 45.5305 -39.8079 27672.1 -1753.56 3676.46 0.05 
13781 1 -2.52453 -0.000975759 4.50521 0 0 0 31.3856 1.24119 -144580 -1.17309 3.79046e-07 -39.8079 5489.15 -18032.1 -657.816 0.05 
6492 1 -1.69707 0.756612 4.54294 0 0 0 110.525 -200.801 -142339 -0.167995 -1.64422e+06 -39.8079 16696.9 -12891.1 2389.16 0.05 
9165 1 -2.43617 -0.768943 4.60783 0 0 0 69.1415 63.0878 -141097 -0.928556 2.76578e+06 -39.8079 -44682.4 13410.2 -3042.24 0.05 
12363 1 -3.14838 -0.412937 4.57955 0 0 0 355.596 239.597 -142172 170.268 222.253 -39.8079 8225.56 -3555.31 5490.18 0.05 
6487 1 -3.35501 -0.32356 4.60308 0 0 0 396.843 223.839 -141599 12857.4 46.402 -39.8079 12836.7 -22377.9 -7704.65 0.05 
7639 1 -0.954673 -0.191668 4.58369 0 0 0 -1.0914 165.7 -141912 0 4.32888 -39.8079 15457.6 21674 1082.4 0.05 
13278 1 -2.04286 0.803516 4.64439 0 0 0 147.39 -1196.56 -140221 -0.347512 -1.3991e+07 -39.8079 -69159.6 7820.31 8625.9 0.05 
11852 1 -2.1836 -0.536355 4.69213 0 0 0 209.781 264.788 -138928 -0.484829 2549.72 -39.8079 11897.3 19456.2 984.161 0.05 
10766 1 -2.77413 0.0188834 4.68732 0 0 0 274.323 -645.343 -139270 -1.7759 -0.00275804 -39.8079 -41199.7 -4787.51 941.861 0.05 
12207 1 -0.638597 0.27439 4.70419 0 0 0 -0.261889 -17318 -139063 0 -19.8678 -39.8079 -20262.1 -18969.9 601.985 0.05 
3777 1 -2.73665 -0.834487 4.73317 0 0 0 477.102 -46650.6 -137498 -1.79404 7.7776e+07 -39.8079 2511.96 -4716.12 -2155.11 0.05 
11713 1 -2.15195 -0.256491 4.7452 0 0 0 187.819 -811.193 -137639 -0.448952 14.5087 -39.8079 12852.1 -8865.71 6541.5 0.05 
9454 1 -2.467 -0.120418 4.74745 0 0 0 23.8613 148.175 -137789 -1.00789 0.836032 -39.8079 8704.99 5585.32 2765.96 0.05 
3037 1 -0.655666 0.0306654 4.83091 0 0 0 51.9572 -3.79083 -135437 0 -0.0118873 -39.8079 -3964.81 -4136.05 3439.81 0.05 
9289 1 -0.142842 0.317845 4.85456 0 0 0 1.1644 -131.287 -134108 0 -42.0628 -39.8079 -3624.17 -6460.88 4435.75 0.05 
10622 1 -2.53043 -0.515502 4.90475 0 0 0 149.526 3.09514 -132670 -1.19126 1629.78 -39.8079 -19546.9 30099.5 -1973.68 0.05 
9291 1 -0.582908 -0.164373 4.93824 0 0 0 0.867404 -55.9492 -132285 0 2.44603 -39.8079 9808.39 -21308.2 -682.456 0.05 
1298 1 -2.31942 -0.552465 5.00448 0 0 0 79.3297 274.924 -130642 -0.682836 3648.85 -39.8079 5833.24 8835.42 -5717.94 0.05 
8417 1 -2.52958 -0.307626 5.01642 0 0 0 9.37303 66461.2 -129879 -1.18862 35.2892 -39.8079 7807.19 -6700.52 1209.71 0.05 
6601 1 -3.06588 -0.239612 5.00338 0 0 0 222.059 156.804 -130485 39.7421 10.7273 -39.8079 1511.83 7088.19 3380.35 0.05 
11208 1 -0.922926 0.316085 5.12553 0 0 0 -0.489781 -313.998 -127289 0 -40.8103 -39.8079 -18203.6 16205.6 -2992.52 0.05 
10028 1 -3.44415 0.69403 5.11578 0 0 0 386.878 -271.724 -126502 167187 -166534 -39.8079 44558.4 21410.1 2807.04 0.05 
11214 1 -1.90812 0.806439 5.16243 0 0 0 194.512 -972.356 -125393 -0.257992 -1.62531e+07 -39.8079 -70915.1 587.244 -4847.1 0.05 
2112 1 -1.37386 -0.397171 5.22228 0 0 0 111.049 -54.5443 -124158 -0.0939008 167.369 -39.8079 1233.91 1872.77 1305.06 0.05 
206 1 -2.29062 -0.760392 5.2666 0 0 0 83.4541 68.8238 -122356 -0.633985 1.92292e+06 -39.8079 -18401.5 -18084.4 1061.65 0.05 
9911 1 -2.3039 -0.192156 5.34413 0 0 0 90.3066 -152.24 -121287 -0.655997 4.3713 -39.8079 -9458.35 6156.14 792.257 0.05 
13478 1 -2.78833 0.407635 5.30989 0 0 0 449.637 -45.6361 -121456 -1.73378 -201.932 -39.8079 -10129.5 -26863.5 2476.92 0.05 
4730 1 -2.34789 0.570679 5.32258 0 0 0 334.723 -235.065 -121644 -0.735363 -5553.18 -39.8079 20948.1 -7961.38 -4366.16 0.05 
8660 1 -2.89558 -0.77936 5.35893 0 0 0 534.999 448.189 -119849 0.158132 4.38751e+06 -39.8079 14477.5 -14760.4 -8301.81 0.05 
12559 1 -2.44102 -0.772083 5.37069 0 0 0 32464 45.7202 -119774 -0.9406 3.17146e+06 -39.8079 -43723.8 -25383.5 -13862.8 0.05 
4350 1 -1.93927 -0.591926 5.4434 0 0 0 93.4383 630.482 -117650 -0.275901 9263.49 -39.8079 -12400.1 -42919.9 4136.68 0.05 
13047 1 -1.4714 -0.504206 5.41859 0 0 0 2.72496 121.49 -118930 -0.110969 1288.03 -39.8079 -5261.26 -2525.86 1985.84 0.05 
7680 1 -0.230754 0.660156 5.44343 0 0 0 -0.0890154 3.36686 -117826 0 -58171.6 -39.8079 -7670.81 -7350.76 -6526.56 0.05 
3659 1 -1.15942 -0.608711 5.46234 0 0 0 5.16334 430.743 -117801 0 14135.2 -39.8079 2733.13 11103 -565.496 0.05 
9947 1 -0.484492 -0.209024 5.45412 0 0 0 0.987894 -342.507 -117774 0 6.07843 -39.8079 -10103.5 12433.8 10082.9 0.05 
11268 1 -1.93231 -0.198202 5.5897 0 0 0 1.76208 -81.2142 -114222 -0.271769 4.92776 -39.8079 29864.8 -3618.73 -685.673 0.05 
12040 1 -3.19029 0.0924436 5.55961 0 0 0 471.714 -356.738 -114849 367.12 -0.354094 -39.8079 15089.1 17082 -86.3417 0.05 
7591 1 -0.677 0.715422 5.61447 0 0 0 -0.00815119 67.9455 -113236 0 -344021 -39.8079 14341 -7770.88 7549.9 0.05 
12192 1 -0.206433 0.179397 5.66252 0 0 0 2.37786 -93.6073 -112466 0 -3.37082 -39.8079 19408.4 -524.192 3250.39 0.05 
13500 1 -0.507367 0.201713 5.69538 0 0 0 1.06112 -118915 -111014 0 -5.27817 -39.8079 38161.3 9002.19 3337.92 0.05 
8359 1 -2.18557 0.0552667 5.75381 0 0 0 77.7597 -401.521 -109586 -0.48717 -0.0712202 -39.8079 -5819.2 -7486.86 -11905.4 0.05 
10939 1 -2.73891 0.641338 5.75901 0 0 0 188.799 39.842 -108479 -1.79584 -33885.3 -39.8079 3906.56 21481.6 603.853 0.05 
13249 1 -1.23554 -0.750846 5.79637 0 0 0 199.43 544.325 -107671 0 1.30088e+06 -39.8079 -27288.1 23601.4 -625.568 0.05 
9169 1 -1.88537 -0.0787688 5.77338 0 0 0 34.9853 72468.5 -109754 -0.245809 0.213466 -39.8079 18361.9 -32131.1 19347.1 0.05 
13159 1 -3.55485 0.486213 5.80457 0 0 0 904.596 -477.74 -107355 1.49742e+07 -893.697 -39.8079 -17199.1 -37408.3 -2407.07 0.05 
8437 1 -3.41617 0.522328 5.79643 0 0 0 585.131 38137.2 -108235 69568.1 -1883.27 -39.8079 19327.7 -34445.8 -4832.02 0.05 
12032 1 -2.87693 -0.334461 5.90234 0 0 0 290.307 -84.2954 -104733 -0.500047 55.9678 -39.8079 4790.94 -28224.8 3147.42 0.05 
13964 1 -0.207481 -0.241787 5.91503 0 0 0 -1.73267 -435.101 -104936 0 11.157 -39.8079 -4294.31 -12211.4 -775.338 0.05 
6590 1 -3.55763 -0.131382 5.91053 0 0 0 731.739 131.805 -105312 1.72902e+07 1.11971 -39.8079 6267.37 -36918.6 8012.27 0.05 
9303 1 -0.34909 -0.119738 5.91164 0 0 0 0.589332 122.437 -105137 0 0.820461 -39.8079 -13928.1 -5148.38 933.195 0.05 
12315 1 -3.41906 0.442377 5.90635 0 0 0 198.545 122.554 -105651 75894.5 -382.464 -39.8079 29274.3 -39488.5 7802.64 0.05 
1859 1 -2.69955 0.262116 5.92005 0 0 0 110.629 -566.061 -104579 -1.73035 -16.024 -39.8079 -5784.6 4348.33 5790.38 0.05 
6890 1 -2.16728 0.313255 5.96465 0 0 0 130.388 247.473 -103525 -0.465918 -38.8736 -39.8079 2141.05 14005.6 -3014.62 0.05 
4674 1 -1.5997 0.565869 5.95131 0 0 0 169.282 83.8336 -103803 -0.139755 -4962.31 -39.8079 24967.3 -9431.76 9902.63 0.05 
271 1 -3.47307 -0.159809 5.98734 0 0 0 266.779 194.947 -103281 451908 2.21074 -39.8079 -6456.94 40297.8 -4579.49 0.05 
13236 1 -3.138 -0.0798757 5.98565 0 0 0 271.394 -26401 -102743 141.429 0.223024 -39.8079 1781.1 -1637.86 4576.29 0.05 
11483 1 -1.88838 -0.722842 6.04374 0 0 0 4.93022 4887.31 -101314 -0.247382 448143 -39.8079 65648.3 -5559.14 -2364.46 0.05 
13162 1 -0.413606 0.0431104 6.1223 0 0 0 109.41 261.21 -98328.8 0 -0.0333623 -39.8079 336.558 -9142.93 2716.89 0.05 
7042 1 -1.69005 0.434479 6.08249 0 0 0 223.827 -12654.7 -100089 -0.165734 -330.016 -39.8079 -34206.3 -5516.62 3736.18 0.05 
3372 1 -1.59225 -0.0172863 6.15814 0 0 0 4.82462 104.867 -98057.9 -0.137844 0.0021144 -39.8079 -23909.3 -10681.9 -2635.59 0.05 
8516 1 -0.701539 0.265999 6.17571 0 0 0 1.42313 -60.5683 -97581.6 0 -17.1561 -39.8079 2073.26 9071.94 8287.91 0.05 
3963 1 -0.262174 0.568009 6.16979 0 0 0 2.44269 221.953 -97608.4 0 -5216.3 -39.8079 -5048.29 -19173.1 -6525.2 0.05 
10960 1 -1.21636 0.781248 6.17337 0 0 0 595.398 -3065.04 -97761.7 0 -4.78131e+06 -39.8079 -90095.7 -10669.7 9763.8 0.05 
10345 1 -3.09144 -0.709207 6.20001 0 0 0 128.2 5019.54 -96029.9 62.2562 277132 -39.8079 52479.7 4063.3 -1435.06 0.05 
4198 1 -1.48533 -0.0451404 6.22693 0 0 0 89.7897 67.2626 -96374.1 -0.113713 0.038376 -39.8079 -21743.3 -3519.48 1061.91 0.05 
11890 1 -2.84174 0.138814 6.2262 0 0 0 451.004 -143.809 -96205.9 -1.26731 -1.35061 -39.8079 22358.7 -25560.3 3189.61 0.05 
13612 1 -1.51827 -0.178854 6.24087 0 0 0 62.0346 -322.345 -95748.3 -0.120544 3.33298 -39.8079 -15597.4 371.408 3250.97 0.05 
13505 1 -0.163428 -0.158052 6.24062 0 0 0 153.17 69735 -96226 0 2.12527 -39.8079 23766.4 5473.26 -5383.39 0.05 
10867 1 -3.06943 0.79247 6.23605 0 0 0 400.747 -488.762 -95278.5 42.3074 -8.09625e+06 -39.8079 -14545.6 26999.2 991.261 0.05 
13274 1 -1.34273 -0.796037 6.28331 0 0 0 153.741 206.037 -94381.9 -0.0891521 9.62904e+06 -39.8079 2351.61 -12550.2 -462.172 0.05 
12344 1 -0.104795 -0.23011 6.33094 0 0 0 -0.974427 -381.27 -92491.4 0 9.02185 -39.8079 -1449.49 -3011.39 12858.7 0.05 
12661 1 -3.53658 0.282031 6.32711 0 0 0 617.021 -45.1973 -93168.8 6.11965e+06 -22.6908 -39.8079 15991.1 -5875.18 -3027.09 0.05 
9422 1 -1.45373 0.432727 6.30498 0 0 0 145.633 -279.522 -93780.3 -0.107608 -319.452 -39.8079 5125.03 2882.75 6268.6 0.05 
4108 1 -0.716727 -0.613544 6.37525 0 0 0 8.49039 343.129 -91544.4 0 16016.4 -39.8079 23231 11283.8 -603.078 0.05 
10294 1 -1.68154 -0.71483 6.42456 0 0 0 8.9747 -85.4287 -90196.4 -0.163044 336945 -39.8079 15261.7 -5016.74 -2015.43 0.05 
7105 1 -1.48464 -0.376286 6.41391 0 0 0 154.374 -258.265 -90828.2 -0.113575 115.65 -39.8079 15953.6 -388.134 9770.12 0.05 
11228 1 -0.852984 0.673601 6.38383 0 0 0 212.248 -292.205 -91138.1 0 -87173 -39.8079 26710.5 22515 882.167 0.05 
10394 1 -1.97879 -0.803253 6.44242 0 0 0 455.702 901.526 -89839.8 -0.300867 1.38049e+07 -39.8079 48274.2 4032.71 470.026 0.05 
6232 1 -3.38318 -0.588807 6.4601 0 0 0 598.02 593.144 -89029.1 27042.7 8579.6 -39.8079 -27584.8 35113.1 -8282.62 0.05 
11247 1 -2.37053 -0.0797269 6.46527 0 0 0 281.584 -280.537 -89138.6 -0.780361 0.221722 -39.8079 20176.5 16917.6 2779.55 0.05 
3780 1 -0.873921 -0.0776819 6.43786 0 0 0 214.749 -236.551 -90065.6 0 0.204368 -39.8079 10985.2 15940 -3369.77 0.05 
8380 1 -0.565981 -0.682955 6.51161 0 0 0 156.055 461.936 -88010.4 0 116647 -39.8079 -75.1218 -1963.71 6907.18 0.05 
11812 1 -2.01865 -0.410247 6.55264 0 0 0 8.26129 65.9611 -86739.4 -0.328918 211.685 -39.8079 -10600.1 -24162.6 9882.96 0.05 
1210 1 -0.287026 0.252166 6.56743 0 0 0 0.254153 226.035 -86541 0 -13.4363 -39.8079 28407.2 -2975.74 -16011.4 0.05 
11567 1 -2.34656 0.662391 6.57239 0 0 0 176.814 -583.3 -85965.3 -0.732813 -62149.4 -39.8079 1786.99 -21168.7 -7103.01 0.05 
13012 1 -1.05312 -0.637407 6.63046 0 0 0 394.42 185.008 -84787.3 0 30374.7 -39.8079 21567.3 -6382.23 -849.642 0.05 
13755 1 -0.90305 -0.278296 6.59186 0 0 0 3.04535 472.909 -85593.1 0 21.2655 -39.8079 -25575.7 30462.9 -6314.97 0.05 
9416 1 -3.55729 0.0584133 6.60878 0 0 0 862.4 -10.5578 -85264.2 1.69824e+07 -0.0844216 -39.8079 -16972.8 -56184.6 4454.39 0.05 
4329 1 -2.28437 0.242388 6.59772 0 0 0 436.396 -111.317 -84885.3 -0.623935 -11.2786 -39.8079 -2387.67 -15375.5 689.759 0.05 
13282 1 -3.21803 0.440588 6.61655 0 0 0 370.897 -563.586 -84482.6 623.726 -369.85 -39.8079 20389 -43565.5 -11889.1 0.05 
11916 1 -1.86273 0.437837 6.59333 0 0 0 70.8084 -59.1585 -85731.7 -0.23438 -351.314 -39.8079 21488.1 5883.66 -749.099 0.05 
11564 1 -3.51563 0.559655 6.67408 0 0 0 318.822 85562.4 -82607.4 2.39881e+06 -4298.44 -39.8079 261.991 23243.1 7058.2 0.05 
13957 1 -0.598617 -0.806037 6.73868 0 0 0 -0.438965 646.812 -81583.4 0 1.59198e+07 -39.8079 59375.1 20431 -1552.29 0.05 
9961 1 -3.54115 -0.451187 6.73718 0 0 0 479.481 185.325 -80410.8 7.59902e+06 451.68 -39.8079 31142.8 -24806.9 -9770.97 0.05 
12325 1 -2.51375 -0.290173 6.72889 0 0 0 567.319 149.826 -81643.2 -1.14045 26.1252 -39.8079 3195.34 13151 3670.74 0.05 
12952 1 -2.76257 -0.217579 6.7265 0 0 0 194.592 498.246 -81769.9 -1.79389 7.149 -39.8079 -5596.16 13792.8 -4217.11 0.05 
8433 1 -1.98868 -0.116309 6.70632 0 0 0 90.5099 -85.5952 -82741.8 -0.307549 0.74523 -39.8079 -27629.9 -1613.83 63.4766 0.05 
3281 1 -1.80515 -0.50036 6.74708 0 0 0 79.8529 308.958 -80747.1 -0.208141 1190.11 -39.8079 26017.5 -1559.52 -5358.65 0.05 
7835 1 -1.02348 -0.110046 6.79211 0 0 0 265.872 325.825 -79933.1 0 0.621369 -39.8079 -18124.5 -28720.3 5095.93 0.05 
5927 1 -0.693442 -0.738232 6.84124 0 0 0 0.751385 4254.82 -78576.9 0 793715 -39.8079 45653.4 -463.853 2434.88 0.05 
13010 1 -2.8926 0.483824 6.81697 0 0 0 451.052 282.258 -78615.9 0.0377781 -852.057 -39.8079 11212.3 -23202.4 2727.87 0.05 
11203 1 -0.298573 0.769547 6.80719 0 0 0 59.4273 42.9835 -78279 0 -2.83925e+06 -39.8079 -16840.2 -19091.4 7106.99 0.05 
6997 1 -1.25698 -0.806583 6.86066 0 0 0 7.76568 2007.63 -77910.7 -0.0775346 1.6375e+07 -39.8079 104188 -3819 10772.9 0.05 
12277 1 -2.53221 -0.703909 6.8782 0 0 0 325.726 565.07 -76782.4 -1.19676 231310 -39.8079 5654.59 -17783.4 -7973.42 0.05 
10018 1 -2.74563 -0.124045 6.87937 0 0 0 265.188 264.743 -77504.8 -1.79933 0.922935 -39.8079 -8288.21 -4563.39 -8281.17 0.05 
3539 1 -0.256312 -0.677198 6.90761 0 0 0 229.158 250.778 -76730.4 0 97406.2 -39.8079 -28886.6 8081.73 7369.33 0.05 
7469 1 -0.105063 -0.651891 6.90688 0 0 0 4.7581 46.6993 -76297.7 0 45718.7 -39.8079 -2407.67 -5808.57 -2764.24 0.05 
11344 1 -0.267198 -0.565362 6.94928 0 0 0 4.79394 -7.08354 -75247.8 6.67957e+06 2.45545e+07 4.93545e+08 22164.7 -707.628 4011.38 0.05 
6901 1 -0.0537513 0.0372556 6.94896 0 0 0 0.461508 -3.09134 -76635.4 0 -0.021421 -39.8079 -22917.7 104160 1454.02 0.05 
14013 1 -3.30283 -0.816423 7.00186 0 0 0 3.83205 1583.25 1.16685 1.66293e+06 1.98275e+07 567988 -849.057 4.984 3478.28 0.05 
196 1 -3.09803 -0.808472 7.00951 0 0 0 0.447816 2009.3 -169.475 222351 1.01802e+07 -128929 -11397.7 464.21 2315.43 0.05 
12327 1 -1.10086 -0.81356 7.00053 0 0 0 1.07581 723.299 1.16145 380278 2.07073e+07 -206092 -5527.7 63.6867 3946.58 0.05 
6695 1 -0.781353 -0.816479 7.00084 0 0 0 -0.184512 1037.44 -1.97244 -82741 2.73899e+07 -99627.5 -1101.46 -2.64667 290.475 0.05 
13221 1 -0.460265 -0.818893 6.99694 0 0 0 1.46705 1021.87 -268.03 293485 2.38402e+07 1.41297e+06 -9101.79 -3302.06 -645.413 0.05 
9943 1 -2.92984 -0.763332 7.00758 0 0 0 135.66 530.287 -562.069 -4.24418e+06 1.46176e+07 -1.19225e+06 -1117.34 12422.9 -1957.22 0.05 
13855 1 -1.76196 -0.754188 7.00228 0 0 0 38.1435 285.827 -76.4116 -439508 5.12829e+06 1.59113e+06 -3303.31 3707.63 -5549.82 0.05 
12243 1 -0.703494 -0.748284 7.00048 0 0 0 79.2819 319.942 -334.437 0 1.17433e+06 -39.8079 -5970.99 2279.07 -7839.35 0.05 
11028 1 -0.585259 -0.764026 6.99893 0 0 0 -0.308172 245.944 -392.424 277601 1.98864e+06 -865922 -3569.26 -592.357 4979.83 0.05 
5466 1 -0.115583 -0.780324 7.00533 0 0 0 -1.06776 485.837 -133.28 0 4.58398e+06 -39.8079 -10239 -3204.55 -3795.08 0.05 
13426 1 -3.28338 -0.732838 7.0083 0 0 0 234.616 188.81 -0.301822 2.81924e+07 2.57941e+07 -1.73208e+06 -1198.3 3687.49 -299.661 0.05 
9896 1 -3.06395 -0.701644 7.00845 0 0 0 310.488 215.748 -235.093 38.4093 214321 -39.8079 -559.755 -954.382 -3468.77 0.05 
11386 1 -2.47918 -0.715182 7.00462 0 0 0 283.764 261.032 -428.151 -1.041 341137 -39.8079 382.913 1519.21 -801.951 0.05 
10082 1 -0.0747181 -0.684305 7.00147 0 0 0 -4.27508 55661.1 -104.702 1.82057e+07 -4.09311e+08 1.89109e+06 -63640.2 -2386.63 -31088.2 0.05 
11448 1 -3.34964 -0.659067 7.00451 0 0 0 346.506 43.036 -159.945 2.60791e+07 4.75498e+07 -1.92042e+06 -5792.45 -1871.45 -328.834 0.05 
9043 1 -2.27481 -0.66227 7.00111 0 0 0 336.617 0.696422 -4.94761 -0.608885 61925.2 -39.8079 234.082 1460.24 -132.83 0.05 
9387 1 -1.88273 -0.632246 6.99923 0 0 0 362.588 410.225 -203.909 -0.24444 26358.7 -39.8079 -10148.1 -3104.27 4983.85 0.05 
13214 1 -1.69986 -0.639222 7.00717 0 0 0 338.358 265.378 -157.199 -39991.5 273816 -187211 1732.12 2166.62 6030.24 0.05 
13698 1 -0.54285 -0.63311 6.99943 0 0 0 359.689 282.033 -237.94 -1.43115e+06 -1.38705e+08 2.7835e+06 991.958 -102.541 2760.35 0.05 
3890 1 -3.45214 -0.604556 7.00323 0 0 0 445.171 1.91011 -183.16 217938 12710.8 -39.8079 -1069.1 10032.3 850.346 0.05 
14036 1 -2.36993 -0.626418 6.99996 0 0 0 394.27 174.708 -77.2312 -0.779147 22509.5 -39.8079 -5492.48 5111.42 -5038.93 0.05 
13329 1 -1.32623 -0.593553 7.00407 0 0 0 430.604 256.353 -0.00471176 -0.0867558 9643.52 -39.8079 -1941.81 4204.42 -4716.37 0.05 
5912 1 -0.353545 -0.596655 7.00145 0 0 0 423.986 404.205 -70.2554 0 10416.7 -39.8079 -8306.81 7485.19 2955.8 0.05 
11316 1 -2.8098 -0.5566 7.00164 0 0 0 287.696 210.023 -3.93192 -1.61597 4008.17 -39.8079 -3944.5 4585.05 -5793.04 0.05 
11479 1 -2.45649 -0.533735 7.00097 0 0 0 301.402 220.34 -309.824 1.52734e+06 248135 -133544 -3230.31 -6322.84 6488.46 0.05 
3581 1 -1.74012 -0.535471 7.00979 0 0 0 308.543 217.368 -385.5 -1.90578e+06 5.2103e+07 -46.3598 -9028.04 2396.55 4060.57 0.05 
12594 1 -0.812306 -0.547763 7.00655 0 0 0 300.975 282.095 -252.403 1.22838e+07 -3.84179e+06 -5.3715e+08 147.453 6399.1 4652.8 0.05 
11555 1 -0.793969 -0.550073 6.96017 0 0 0 364.966 -221.187 -74157.8 -1.27329e+07 3.70961e+06 5.36412e+08 -11873.3 -18172.2 962.933 0.05 
10556 1 -0.707048 -0.538298 7.00863 0 0 0 307.104 340.863 -251.095 -802262 -679666 1.31895e+06 1402.46 -1113.86 -3320.62 0.05 
9307 1 -0.257948 -0.531074 7.00167 0 0 0 290.258 387.976 -234.851 -6.67957e+06 -2.45473e+07 -4.93546e+08 3966.64 3680.59 992.087 0.05 
12205 1 -3.11885 -0.503101 7.0032 0 0 0 227.469 80.423 -79.0536 -173080 -341949 -479431 -4870.21 2278.85 4623.41 0.05 
7966 1 -2.02028 -0.517722 7.00053 0 0 0 271.21 261.387 -1.14501 -0.330126 1707.9 -39.8079 -5905.43 4623.78 3846.23 0.05 
7434 1 -1.82332 -0.520136 7.00761 0 0 0 27.7481 10358.2 -244.267 672651 -1.50639e+08 -2.01594e+06 -139.742 2598.54 39.1857 0.05 
10984 1 -1.50138 -0.505558 6.99859 0 0 0 246.12 24.8234 -391.667 -375332 320351 121421 -232.644 4297.8 4502.83 0.05 
13525 1 -1.37056 -0.488507 7.0088 0 0 0 216.45 324.21 -54.924 -954933 -541523 -298032 -3510.15 1948.9 4174.99 0.05 
5517 1 -3.39997 -0.433815 6.99996 0 0 0 6938.86 -2.40877 -1.2354 -2.94555e+07 447015 333738 15.983 -5660.78 3576.16 0.05 
6295 1 -3.22207 -0.47066 7.00584 0 0 0 127.987 325.597 -202 674.864 657.166 -39.8079 -7466.71 412.582 5921.79 0.05 
13644 1 -2.15711 -0.468137 6.9994 0 0 0 110.222 -230.345 -158.07 -2.29942e+07 6.89966e+08 -8.79953e+06 8615.52 -307.943 206.161 0.05 
7418 1 -1.68382 -0.44838 6.99655 0 0 0 0.890269 278.433 -264.707 -0.163762 428.276 -39.8079 181.889 -2164.34 1394.11 0.05 
3483 1 -0.638466 -0.470464 7.00938 0 0 0 132.965 132.471 -4.12129 802262 682981 -1.31903e+06 -4401.42 1602.62 2248.8 0.05 
6072 1 -3.06717 -0.415061 7.00495 0 0 0 2.72937 64.5129 -100.258 737464 7383.76 66191.2 -390.341 -4250.16 1274.09 0.05 
11339 1 -2.07378 -0.371376 7.00331 0 0 0 3.50511 -49.7013 -312.078 -0.373157 106.115 -39.8079 842.931 689.636 10680.7 0.05 
12492 1 -1.42302 -0.401487 7.00504 0 0 0 0.290928 283.972 -444.797 -0.10206 180.803 -39.8079 -5414.35 134.491 4899.75 0.05 
2539 1 -1.16149 -0.407716 7.00889 0 0 0 4.55219 73.4453 -1.52586 3.4498e+06 7.75332e+07 -1.87193e+06 -689.048 -5.05187 -2294.68 0.05 
6261 1 -0.775936 -0.370349 6.99548 0 0 0 0.281684 336.86 -308.997 0 104.225 -39.8079 -2696.97 3748.79 -391.03 0.05 
11157 1 -0.354937 -0.409759 7.00165 0 0 0 -0.267735 257.751 -0.224399 1.01668e+06 4.12481e+07 -1.89737e+06 -2733.96 -4.81563 5445.2 0.05 
12860 1 -0.240002 -0.406076 7.00327 0 0 0 3.68107 348.577 -0.849144 0 196.338 -39.8079 1564.86 35.3633 -1080.75 0.05 
3298 1 -2.40048 -0.3493 7.00468 0 0 0 65.2207 251.122 -207.485 -0.844585 72.2918 -39.8079 -7407.33 4969.75 -8391.18 0.05 
13080 1 -1.62841 -0.32507 7.00379 0 0 0 197.143 174.826 -0.755948 -0.147424 47.6218 -39.8079 -1215.14 1294.46 -11191.4 0.05 
11927 1 -1.26261 -0.327997 7.00105 0 0 0 190.333 0.469159 -2.48983 -0.0782375 50.0789 -39.8079 401.525 1441.54 -6199.21 0.05 
11626 1 -3.32774 -0.292569 7.00795 0 0 0 303.06 -0.212864 -265.272 6564.52 27.2291 -39.8079 4436.21 -2902.13 -4277.21 0.05 
246 1 -1.97437 -0.305254 7.00776 0 0 0 260.68 227.106 -0.510912 -0.297943 33.8787 -39.8079 -4401.5 1334.13 -10537.5 0.05 
13413 1 -0.751344 -0.27063 7.00782 0 0 0 2.59169 315.086 -73.4749 369474 882455 -15991.9 3088.3 97.0477 -3979.47 0.05 
13443 1 -2.62178 -0.23293 7.00279 0 0 0 313.393 306.637 -303.102 -1.49248 9.50013 -39.8079 -9285.9 -1777.63 1566.2 0.05 
4622 1 -1.81913 -0.214523 7.01012 0 0 0 247.457 -301.409 -2.24466 -1.02122e+06 4.06918e+08 -9.1516e+06 1543.19 921.28 5564.35 0.05 
11055 1 -1.58437 -0.223073 7.00847 0 0 0 284.437 77.1732 -126 -0.135862 7.92199 -39.8079 -3994.61 5233.94 1669.15 0.05 
9031 1 -1.07393 -0.254587 7.00495 0 0 0 334.719 288.98 -1.45956 0 14.0271 -39.8079 -2048.04 1858.17 5458.71 0.05 
8291 1 -0.433877 -0.221528 7.00871 0 0 0 -0.72303 -149.669 -244.806 -3.89322e+06 -2.13073e+08 -7.30923e+06 -703.725 -5942.71 1290.23 0.05 
10863 1 -3.48584 -0.17626 7.00173 0 0 0 4443.66 -7.44934 -475.024 -3.50586e+07 -2.21142e+06 -100935 -6546.87 125.035 6002.22 0.05 
11894 1 -3.17266 -0.17622 7.00153 0 0 0 96.5294 7.88289 -4.61213 37579.2 2.23134e+06 -1.18605e+06 -175.3 610.949 3842.66 0.05 
12122 1 -0.561739 -0.187952 6.99537 0 0 0 -0.486486 -280.04 -438.813 0 4.01702 -39.8079 1571.51 2273.6 -4490.38 0.05 
13658 1 -0.159219 -0.167558 6.99675 0 0 0 -0.0855353 -114.71 -340.829 68601.4 47646.7 -75443.1 5125.83 -2453.88 -4776.54 0.05 
12127 1 -2.82774 -0.110419 7.00569 0 0 0 0.658222 -16.5174 -176.056 -1.45122 0.628274 -39.8079 -349.767 7175.76 -685.997 0.05 
7242 1 -1.01374 -0.157008 7.00433 0 0 0 2.10499 301.785 -440.675 0 2.07575 -39.8079 -4537.36 4110.27 -3968.13 0.05 
6839 1 -2.93541 -0.0583603 7.00059 0 0 0 91.9204 286.016 -1.03182 2.51425 0.0841862 -39.8079 -1689.84 3566.96 -6522.54 0.05 
8449 1 -2.52391 -0.0608678 7.00972 0 0 0 162.583 75.4719 -328.923 -1.1712 0.0958253 -39.8079 -2773.26 8870.92 -262.636 0.05 
9952 1 -1.27441 -0.074904 7.00529 0 0 0 84.0763 1.56742 -1.39535 -0.0797357 0.182364 -39.8079 475.418 3136.13 -2102.83 0.05 
13065 1 -0.446359 -0.0726916 7.00082 0 0 0 60.1186 -390.178 -1.95419 0 0.166079 -39.8079 5055.88 2363.08 -659.839 0.05 
11753 1 -2.68232 -0.00662808 7.00346 0 0 0 157.365 108.926 -133.883 4.03742e+06 -1.39346e+08 3.65864e+06 5112.75 1720.53 -1243.82 0.05 
13038 1 -2.38227 -0.0442733 7.00847 0 0 0 162.426 62.7373 -292.11 -356893 14505.3 -50675.5 5963.13 7016.49 -3811.48 0.05 
9721 1 -2.21187 -0.045329 7.00071 0 0 0 123.04 -81.2094 0.109578 -0.519793 0.0388662 -39.8079 1015.05 4811.97 -4938.27 0.05 
11177 1 -1.65742 -0.01522 7.00014 0 0 0 140.351 271.523 -232.565 -2.55198e+06 1.07632e+08 -3.16376e+08 -5560.4 12149.5 -1522.01 0.05 
10773 1 -0.272445 -0.0399491 6.99996 0 0 0 126.001 218.709 -136.875 0 0.0264715 -39.8079 4214.1 7977.33 -7016.14 0.05 
9438 1 -3.4769 0.0215273 7.003 0 0 0 4637.39 -63.1769 -167.726 -6.25325e+07 -307566 10118.2 -1041.66 -6280.58 -1767.98 0.05 
1157 1 -1.05215 0.0225292 7.00781 0 0 0 115.395 327.817 -0.866362 0 -0.00469153 -39.8079 -1803.03 4161.78 4188.08 0.05 
2032 1 -0.422472 0.0477329 6.99815 0 0 0 1.15672 -302.125 -333.327 0 -0.0454951 -39.8079 5672.86 1259.79 -199.496 0.05 
5587 1 -2.27425 0.0581148 7.00777 0 0 0 49.1876 -90.5435 -97.7073 -333063 -1.20033e+06 -1.94434e+06 2988.01 5932.2 -2034.14 0.05 
4228 1 -2.03729 0.0879711 7.00415 0 0 0 119.611 -87.8968 -1.67869 -0.34312 -0.302439 -39.8079 1024.1 4523.61 4066.53 0.05 
5683 1 -1.90231 0.0564304 7.00452 0 0 0 28.2684 -107.953 -0.39502 1.02349e+06 -91830.7 24960.7 847.964 1001.21 -5139.66 0.05 
1680 1 -1.26627 0.110534 7.00713 0 0 0 199.444 75330 -239.776 -1.19853e+07 -8.30258e+08 6.66178e+06 -20168.3 4177.08 -9768.58 0.05 
9104 1 -0.713415 0.0642846 7.00869 0 0 0 91.7947 123.937 -194.321 -9.69715e+06 -5.98314e+08 2.01624e+06 3977.22 8589.78 -5773.88 0.05 
11421 1 -3.47985 0.154628 7.0026 0 0 0 4577.1 65.348 -181.842 -2.66966e+07 470763 -739808 -1603.67 -2656.8 2040 0.05 
1592 1 -1.43755 0.120411 7.00562 0 0 0 175.404 187.122 -225.648 -0.104639 -0.835873 -39.8079 -2198.6 63.7717 3932.12 0.05 
8636 1 -0.448274 0.154803 7.00615 0 0 0 120.445 -413.901 -0.683963 0 -1.9742 -39.8079 4452.07 4363.29 3557.15 0.05 
3720 1 -0.32103 0.117242 7.00092 0 0 0 143.364 313.586 -1.43715 0 -0.765166 -39.8079 -3241.05 5521.36 1523.92 0.05 
11518 1 -3.24935 0.183878 7.00053 0 0 0 3.89446 -225.388 -229.923 1165.23 -3.69736 -39.8079 -2998.39 -2600.31 5901.16 0.05 
8568 1 -3.02179 0.186363 7.00797 0 0 0 -0.544486 -143.952 0.2181 3.36948e+07 9.81462e+08 -3.98363e+06 3278.9 20.5822 8015.68 0.05 
11832 1 -2.59852 0.186508 7.0021 0 0 0 4.56071 99.0722 -2.7508 -1.41363 -3.90114 -39.8079 -3087.6 77.6596 2571.15 0.05 
11037 1 -1.58213 0.169897 7.00089 0 0 0 73.8741 40.2106 -118.72 -0.135304 -2.7578 -39.8079 -1760.1 3769.79 26.9101 0.05 
5472 1 -1.06038 0.185159 7.00205 0 0 0 -2.44821 229.495 -2.34892 2.68993e+07 9.19283e+08 2.03698e+07 -1899.24 1.59742 2112.1 0.05 
13760 1 -3.56728 0.252975 6.99845 0 0 0 1562.36 -25.0006 -414.497 1.80716e+07 -710760 -70650.4 4447.3 9920.37 4323.32 0.05 
10467 1 -3.39068 0.224095 7.00623 0 0 0 50.7915 -84.3585 -1.45485 796004 -42485 -1.18773e+06 864.987 2068.7 -3784.06 0.05 
2425 1 -2.46237 0.234382 6.99761 0 0 0 65.6054 474.226 -74098.8 4.63366e+06 -2.29623e+07 4.57859e+08 6976.63 -5625.27 7314.09 0.05 
3741 1 -1.25446 0.221254 7.0102 0 0 0 0.444528 -331.801 -0.221823 -0.0772221 -7.65815 -39.8079 -7.20369 -1.50365 1997.48 0.05 
13514 1 -0.206695 0.248043 7.00784 0 0 0 -0.268736 -109.382 -371.923 0 -12.4836 -39.8079 8674.87 -3883.3 1778.3 0.05 
6836 1 -0.737035 0.275024 7.00113 0 0 0 -0.297823 69.3779 -288.978 -457890 572924 -682388 2540.42 4847.35 553.525 0.05 
5181 1 -3.30857 0.342542 7.0014 0 0 0 340.187 -308.945 -1.13249 4192.33 -64.328 -39.8079 3858.65 5791.69 -7304.2 0.05 
5457 1 -2.82805 0.322914 7.00421 0 0 0 219.112 0.62401 -65.9054 -1.44767 -45.8899 -39.8079 -2818.02 6535.62 -4939.71 0.05 
4861 1 -2.72022 0.353765 7.00814 0 0 0 390.331 172.774 -189.603 -1.77292 -78.1008 -39.8079 3405.24 3024.8 -9268.54 0.05 
9264 1 -2.5859 0.318707 7.01008 0 0 0 196.813 142.025 -3.09359 -1.37107 -42.6898 -39.8079 -3512.97 5306.22 -2956.01 0.05 
7879 1 -2.46943 0.352222 7.01008 0 0 0 383.378 -216.561 -1.11918 -1.01441 -76.0406 -39.8079 5422.11 5582.54 -9211.98 0.05 
13743 1 -2.13543 0.354022 6.99869 0 0 0 354.843 -305.044 -240.58 -0.431499 -78.4488 -39.8079 8948.85 2256.48 -7214.97 0.05 
12717 1 -1.96199 0.365586 7.00123 0 0 0 379.014 60.94 -2.3148 -6.94054e+06 1.59981e+08 3.1422e+06 -1271.28 5416.39 -5172.54 0.05 