ITEM: TIMESTEP
290000
ITEM: NUMBER OF ATOMS
14052
ITEM: BOX BOUNDS ff pp ff
-3.75 3.75
-1 1
0 10
ITEM: ATOMS id type x y z ix iy iz vx vy vz fx fy fz omegax omegay omegaz radius 
13821 1 -1.59505 -0.510705 4.88851 0 0 0 0.275183 105.577 -171857 -0.138558 1473.93 -39.8079 4511.3 3783.37 -2558.63 0.05 
9412 1 -2.15414 -0.351649 4.87998 0 0 0 1.89464 14.6513 -171840 -0.451329 75.29 -39.8079 -9278.38 13846.1 5701.27 0.05 
10206 1 -3.22483 0.651919 4.91888 0 0 0 223.625 -338.394 -170107 712.442 -45756.2 -39.8079 5136.14 -10974 -8981.36 0.05 
12795 1 -2.98595 -0.318804 4.96772 0 0 0 496.068 -76.1835 -168732 8.89716 42.7612 -39.8079 -10403.9 3184.62 3882.04 0.05 
13215 1 -0.227488 -0.103538 4.95525 0 0 0 -0.415757 615.338 -169069 0 0.509599 -39.8079 56.5582 22216.6 -6775.57 0.05 
7183 1 -0.750528 -0.361258 5.02458 0 0 0 -0.775491 310.248 -166448 0 88.9475 -39.8079 -12783.2 -9045.73 -4366.71 0.05 
4371 1 -1.71273 0.398018 5.00896 0 0 0 0.978136 -152.086 -167037 -0.173177 -169.918 -39.8079 17513.9 -2599.57 17.1685 0.05 
11397 1 -0.430415 0.754381 5.01752 0 0 0 0.381765 54.3425 -166689 0 -1.50083e+06 -39.8079 9019.46 16450.5 -5556.43 0.05 
12202 1 -1.69864 -0.493226 5.08519 0 0 0 179.822 82.5008 -164076 -0.168506 1029.17 -39.8079 9591.61 11592.2 3632.57 0.05 
13017 1 -1.4873 -0.794332 5.11744 0 0 0 0.909248 575.84 -163153 -0.114107 8.85988e+06 -39.8079 -24189.3 -7438.98 3021.17 0.05 
10576 1 -3.26976 0.235378 5.08874 0 0 0 288.581 -171.664 -164748 1782.84 -9.93391 -39.8079 -34639.3 13625.1 1203.32 0.05 
8448 1 -0.483477 -0.799419 5.2067 0 0 0 0.508839 342.207 -159922 0 1.1382e+07 -39.8079 -5624.8 -12451.1 599.922 0.05 
11202 1 -0.850038 0.25083 5.23109 0 0 0 123.447 238.648 -159224 0 -13.1204 -39.8079 -9912.06 27218.7 2176.75 0.05 
13635 1 -1.11897 0.676099 5.21786 0 0 0 1.12983 -248.862 -159669 0 -94145.3 -39.8079 23219.4 1106.72 3265.97 0.05 
11049 1 -2.64892 -0.218481 5.27132 0 0 0 133.741 -5.57849 -157302 -1.58289 7.27102 -39.8079 18.8217 -15907.8 3665.63 0.05 
9405 1 -1.49398 0.137054 5.28014 0 0 0 152.075 67.4589 -157450 -0.11546 -1.29283 -39.8079 -6349.9 -4238.04 -3403.14 0.05 
12319 1 -0.0529334 0.160963 5.28663 0 0 0 -0.207636 85.6351 -158386 0 -2.26839 -39.8079 -4133.99 98548.8 -3973.59 0.05 
11924 1 -1.4842 -0.83512 5.32576 0 0 0 0.0425371 132706 -156145 -0.113487 8.08127e+07 -39.8079 -713.479 -4098.91 8296.87 0.05 
13254 1 -1.96442 0.529233 5.32464 0 0 0 -0.150737 27.6428 -155765 -0.291484 -2183.96 -39.8079 -7367.64 -23625.4 3565.41 0.05 
12761 1 -0.541566 0.530666 5.31385 0 0 0 0.273628 -327.09 -156298 0 -2252.69 -39.8079 16792.2 -12762.6 -880.602 0.05 
11242 1 -1.16453 0.578866 5.35676 0 0 0 -0.0422323 -200.712 -155175 0 -6743.9 -39.8079 11388 -13157.8 4496.39 0.05 
8681 1 -0.510984 0.822834 5.38616 0 0 0 -0.925695 -745.486 -153783 0 -3.93869e+07 -39.8079 -50699.1 11980.1 1235.89 0.05 
12566 1 -1.8987 0.273245 5.40435 0 0 0 77.5525 -317.074 -153211 -0.252859 -19.4749 -39.8079 -16700 2013.15 5382.68 0.05 
12900 1 -3.48844 0.801899 5.40311 0 0 0 310.238 -518.83 -151839 799970 -1.28897e+07 -39.8079 -23920.6 40304.7 -3110.64 0.05 
12455 1 -2.35563 -0.308405 5.53051 0 0 0 1.67213 168.304 -148866 -0.750428 35.765 -39.8079 7925.15 12355.5 -4376.61 0.05 
4032 1 -1.64334 0.244032 5.52749 0 0 0 0.993796 310.862 -148998 -0.151618 -11.6172 -39.8079 9126.22 20299.1 3259.07 0.05 
7677 1 -1.36622 0.536892 5.534 0 0 0 -0.253296 -136.76 -149126 -0.0927061 -2579.88 -39.8079 -7104.88 7447.28 662.835 0.05 
11415 1 -0.877477 0.824611 5.54757 0 0 0 238.893 -898.497 -148344 0 -4.35634e+07 -39.8079 -96357.5 -10605.3 1405.99 0.05 
8255 1 -3.29329 -0.428699 5.58464 0 0 0 175.975 68.4652 -146740 2970.47 296.516 -39.8079 -29492.7 -11449 4606.84 0.05 
10609 1 -1.77685 -0.321135 5.56309 0 0 0 1.51252 -165.219 -147349 -0.196575 44.5083 -39.8079 27672.1 -1753.56 3676.46 0.05 
13781 1 -2.52478 -0.000985688 5.66185 0 0 0 31.3856 1.24119 -144580 -1.17386 3.90736e-07 -39.8079 5489.15 -18032.1 -657.816 0.05 
6492 1 -1.69795 0.758205 5.68166 0 0 0 110.525 -197.451 -142339 -0.168282 -1.75586e+06 -39.8079 16696.9 -12891.1 2389.16 0.05 
9165 1 -2.43673 -0.769425 5.73661 0 0 0 69.1415 57.5768 -141097 -0.929923 2.82424e+06 -39.8079 -44682.4 13410.2 -3042.24 0.05 
12363 1 -3.15122 -0.414854 5.71693 0 0 0 355.596 239.596 -142172 179.206 230.121 -39.8079 8225.56 -3555.31 5490.18 0.05 
6487 1 -3.35818 -0.325351 5.73587 0 0 0 396.817 223.839 -141599 13944.3 47.8521 -39.8079 12836.7 -22377.9 -7704.65 0.05 
7639 1 -0.954664 -0.192994 5.71898 0 0 0 -1.0914 165.7 -141912 0 4.44503 -39.8079 15457.6 21674 1082.4 0.05 
11852 1 -2.18528 -0.538473 5.80355 0 0 0 209.781 264.783 -138928 -0.486825 2671.01 -39.8079 11897.3 19456.2 984.161 0.05 
10766 1 -2.77632 0.0240462 5.80148 0 0 0 274.323 -645.343 -139270 -1.77094 -0.00570887 -39.8079 -41199.7 -4787.51 941.861 0.05 
13278 1 -2.04404 0.812958 5.76616 0 0 0 147.39 -1160.95 -140221 -0.34845 -2.28949e+07 -39.8079 -69159.6 7820.31 8625.9 0.05 
3777 1 -2.74046 -0.461226 5.83316 0 0 0 477.102 -46658.1 -137498 -1.7969 547.282 -39.8079 2511.96 -4716.12 -2155.11 0.05 
11713 1 -2.15345 -0.250001 5.84631 0 0 0 187.819 -811.193 -137639 -0.450582 12.9281 -39.8079 12852.1 -8865.71 6541.5 0.05 
9454 1 -2.4672 -0.121604 5.84977 0 0 0 23.8613 148.175 -137789 -1.0084 0.863716 -39.8079 8704.99 5585.32 2765.96 0.05 
12207 1 -0.638595 0.412934 5.81669 0 0 0 -0.261889 -17318 -139063 0 -222.241 -39.8079 -20262.1 -18969.9 601.985 0.05 
10622 1 -2.53163 -0.515526 5.96611 0 0 0 149.526 3.09192 -132670 -1.19496 1630.63 -39.8079 -19546.9 30099.5 -1973.68 0.05 
3037 1 -0.656081 0.0306958 5.91441 0 0 0 51.9572 -3.79083 -135437 0 -0.0119228 -39.8079 -3964.81 -4136.05 3439.81 0.05 
9289 1 -0.142852 0.318895 5.92742 0 0 0 1.1644 -131.287 -134108 0 -42.8286 -39.8079 -3624.17 -6460.88 4435.75 0.05 
9291 1 -0.582914 -0.163926 5.99652 0 0 0 0.867404 -55.9492 -132285 0 2.4221 -39.8079 9808.39 -21308.2 -682.456 0.05 
8417 1 -2.52966 -0.839314 6.05545 0 0 0 9.37304 66454.3 -129879 -1.18885 1.04561e+08 -39.8079 7807.19 -6700.52 1209.71 0.05 
1298 1 -2.32005 -0.554664 6.04961 0 0 0 79.3297 274.917 -130642 -0.68396 3835.37 -39.8079 5833.24 8835.42 -5717.94 0.05 
6601 1 -3.06766 -0.240866 6.04726 0 0 0 222.059 156.804 -130485 41.0066 10.9733 -39.8079 1511.83 7088.19 3380.35 0.05 
11208 1 -0.922922 0.318597 6.14385 0 0 0 -0.489781 -313.998 -127289 0 -42.6098 -39.8079 -18203.6 16205.6 -2992.52 0.05 
10028 1 -3.44724 0.696203 6.1278 0 0 0 386.531 -271.384 -126502 185101 -178849 -39.8079 44558.4 21410.1 2807.04 0.05 
11214 1 -1.90968 0.81407 6.16557 0 0 0 194.512 -932.909 -125393 -0.258852 -2.43022e+07 -39.8079 -70915.1 587.244 -4847.1 0.05 
2112 1 -1.37475 -0.396735 6.21555 0 0 0 111.049 -54.5446 -124158 -0.0940409 166.07 -39.8079 1233.91 1872.77 1305.06 0.05 
206 1 -2.29128 -0.760927 6.24545 0 0 0 83.4541 64.9897 -122356 -0.635071 1.96642e+06 -39.8079 -18401.5 -18084.4 1061.65 0.05 
8660 1 -2.89986 -0.782909 6.31772 0 0 0 534.999 438.798 -119849 0.34196 5.16005e+06 -39.8079 14477.5 -14760.4 -8301.81 0.05 
9911 1 -2.30462 -0.190938 6.31443 0 0 0 90.3066 -152.24 -121287 -0.657219 4.26602 -39.8079 -9458.35 6156.14 792.257 0.05 
13478 1 -2.79193 0.408 6.28154 0 0 0 449.637 -45.6357 -121456 -1.71902 -203.266 -39.8079 -10129.5 -26863.5 2476.92 0.05 
4730 1 -2.35056 0.572559 6.29573 0 0 0 334.723 -235.054 -121644 -0.740532 -5804.75 -39.8079 20948.1 -7961.38 -4366.16 0.05 
12559 1 -2.70073 -0.772424 6.32888 0 0 0 32464 39.4196 -119774 -1.73315 3.21926e+06 -39.8079 -43723.8 -25383.5 -13862.8 0.05 
13047 1 -1.47142 -0.505178 6.37003 0 0 0 2.72496 121.487 -118930 -0.110973 1314.13 -39.8079 -5261.26 -2525.86 1985.84 0.05 
4350 1 -1.94002 -0.59697 6.38459 0 0 0 93.4383 630.462 -117650 -0.276349 10499 -39.8079 -12400.1 -42919.9 4136.68 0.05 
3659 1 -1.15946 -0.612157 6.40475 0 0 0 5.16334 430.714 -117801 0 15449.6 -39.8079 2733.13 11103 -565.496 0.05 
9947 1 -0.4845 -0.206284 6.39631 0 0 0 0.987894 -342.507 -117774 0 5.76688 -39.8079 -10103.5 12433.8 10082.9 0.05 
7680 1 -0.230753 0.660129 6.38604 0 0 0 -0.0890154 3.48149 -117826 0 -58124.6 -39.8079 -7670.81 -7350.76 -6526.56 0.05 
12040 1 -3.19406 0.0952975 6.4784 0 0 0 471.713 -356.738 -114849 394.116 -0.390215 -39.8079 15089.1 17082 -86.3417 0.05 
11268 1 -1.93233 -0.197552 6.50347 0 0 0 1.76208 -81.2142 -114222 -0.271777 4.86518 -39.8079 29864.8 -3618.73 -685.673 0.05 
7591 1 -0.677 0.714875 6.52035 0 0 0 -0.00815119 68.6173 -113236 0 -337482 -39.8079 14341 -7770.88 7549.9 0.05 
12192 1 -0.206452 0.180146 6.56226 0 0 0 2.37786 -93.6073 -112466 0 -3.42363 -39.8079 19408.4 -524.192 3250.39 0.05 
13500 1 -0.507375 0.754839 6.58349 0 0 0 1.06112 118915 -111014 0 -1.52909e+06 -39.8079 38161.3 9002.19 3337.92 0.05 
8359 1 -2.18619 0.0584789 6.6305 0 0 0 77.7597 -401.521 -109586 -0.487913 -0.0847137 -39.8079 -5819.2 -7486.86 -11905.4 0.05 
10939 1 -2.74042 0.641019 6.62684 0 0 0 188.799 39.9085 -108479 -1.79687 -33584.4 -39.8079 3906.56 21481.6 603.853 0.05 
13249 1 -1.23713 -0.755189 6.65773 0 0 0 199.43 541.522 -107671 0 1.55111e+06 -39.8079 -27288.1 23601.4 -625.568 0.05 
9169 1 -1.88565 -0.658517 6.65141 0 0 0 34.9853 72468.5 -109754 -0.245955 55432.4 -39.8079 18361.9 -32131.1 19347.1 0.05 
8437 1 -3.42085 0.21723 6.66231 0 0 0 584.984 38137.3 -108235 80140.8 -7.10218 -39.8079 19327.7 -34445.8 -4832.02 0.05 
13159 1 -3.56195 0.490035 6.66341 0 0 0 868.855 -477.738 -107355 2.16953e+07 -964.96 -39.8079 -17199.1 -37408.3 -2407.07 0.05 
12032 1 -2.87925 -0.333787 6.74021 0 0 0 290.307 -84.2955 -104733 -0.429473 55.322 -39.8079 4790.94 -28224.8 3147.42 0.05 
13964 1 -0.207467 -0.238306 6.75452 0 0 0 -1.73267 -435.101 -104936 0 10.4766 -39.8079 -4294.31 -12211.4 -775.338 0.05 
6590 1 -3.56333 -0.132437 6.75302 0 0 0 691.941 131.805 -105312 2.33616e+07 1.15045 -39.8079 6267.37 -36918.6 8012.27 0.05 
9303 1 -0.349095 -0.120718 6.75274 0 0 0 0.589332 122.437 -105137 0 0.842965 -39.8079 -13928.1 -5148.38 933.195 0.05 
1859 1 -2.70044 0.266645 6.75668 0 0 0 110.629 -566.061 -104579 -1.73246 -17.3514 -39.8079 -5784.6 4348.33 5790.38 0.05 
6890 1 -2.16832 0.311276 6.79285 0 0 0 130.388 247.473 -103525 -0.4671 -37.5735 -39.8079 2141.05 14005.6 -3014.62 0.05 
12315 1 -3.42064 0.441396 6.75156 0 0 0 198.391 122.554 -105651 79641.1 -375.495 -39.8079 29274.3 -39488.5 7802.64 0.05 
4674 1 -1.60106 0.565198 6.78173 0 0 0 169.282 83.8433 -103803 -0.140105 -4885.53 -39.8079 24967.3 -9431.76 9902.63 0.05 
271 1 -3.4752 -0.161368 6.81359 0 0 0 265.853 194.947 -103281 488219 2.28895 -39.8079 -6456.94 40297.8 -4579.49 0.05 
13236 1 -3.14017 0.131332 6.80759 0 0 0 271.393 -26401 -102743 147.013 -1.11826 -39.8079 1781.1 -1637.86 4576.29 0.05 
11483 1 -1.88842 -0.761934 6.85425 0 0 0 4.93022 4885.27 -101314 -0.247403 2.05125e+06 -39.8079 65648.3 -5559.14 -2364.46 0.05 
7042 1 -1.69184 0.535717 6.8832 0 0 0 223.827 -12654.7 -100089 -0.166307 -2514.36 -39.8079 -34206.3 -5516.62 3736.18 0.05 
3372 1 -1.59228 -0.0181252 6.94261 0 0 0 5.42691 105.013 -98074 -1.141e+07 -8.91832e+06 7.67626e+08 -23920.7 -11150 -2640.17 0.05 
13162 1 -0.414481 0.0410207 6.90893 0 0 0 109.436 261.177 -98335.4 -1.81385e+06 2.29821e+06 4.44353e+08 308.631 -9168.12 2716.91 0.05 
14013 1 -3.30285 -0.828866 7.00185 0 0 0 0.783721 1517.69 0.150818 1.32776e+06 5.04512e+07 443302 -936.764 4.62571 3736.29 0.05 
12327 1 -1.10087 -0.81914 7.00053 0 0 0 -3.05011 586.31 -0.289803 1.25571e+07 8.41439e+08 4.58256e+06 -4886.36 26.4209 1376.62 0.05 
6695 1 -0.781352 -0.824524 7.00086 0 0 0 -0.158495 968.593 -1.94112 0 4.33486e+07 -39.8079 -1105.73 -1.7622 291.429 0.05 
13221 1 -0.460274 -0.826835 6.9991 0 0 0 0.934293 957.303 -270.981 249596 4.30055e+07 1.56396e+06 -9516.17 -3223.85 -562.701 0.05 
10345 1 -3.09247 -0.74936 6.96826 0 0 0 127.409 5019.69 -96110.8 -5.11488e+06 -4.27226e+07 1.38689e+09 52067.8 4580.06 -1416.1 0.05 
13855 1 -1.76227 -0.756231 7.00278 0 0 0 40.151 74.2462 0.73217 1.48161e+07 3.59706e+08 -7.23453e+06 106.579 571.032 -141.325 0.05 
12243 1 -0.704084 -0.750736 7.00116 0 0 0 72.871 300.729 0.138462 0 1.29514e+06 -39.8079 -5547.34 337.431 -7846.79 0.05 
11028 1 -0.585256 -0.765975 7.00049 0 0 0 -0.984516 239.799 -0.455971 0 2.4343e+06 -39.8079 -3918.86 -7.42684 5029.43 0.05 
5466 1 -0.115565 -0.782574 7.0064 0 0 0 -4.92937 352.404 -103.777 -3.42781e+07 -9.69448e+06 -4.88845e+08 -9786.59 -2626.02 -5537.52 0.05 
10082 1 -0.0747356 -0.757872 7.00174 0 0 0 6.6797 -56424.1 -33.4949 1.50662e+07 1.02902e+09 -1.82122e+08 -61347.6 -1201.35 -32649.7 0.05 
13426 1 -3.28523 -0.734263 7.00829 0 0 0 231.864 171.265 0.879169 -1.32159e+06 5.92376e+06 -443382 -1223.2 3586.19 77.8631 0.05 
11386 1 -2.48145 -0.717266 7.00652 0 0 0 283.658 260.17 -189.377 -1.0473 367151 -39.8079 1642.02 7663.69 -797.809 0.05 
11448 1 -3.35237 -0.65918 7.00548 0 0 0 340.229 0.510493 -0.220039 12023.8 56523.9 -39.8079 0.00307506 769.836 372.976 0.05 
9043 1 -2.2775 -0.662275 7.00115 0 0 0 336.617 0.574329 -4.94753 -0.613079 61934.5 -39.8079 234.082 1460.24 -132.83 0.05 
9387 1 -1.88563 -0.634893 7.00086 0 0 0 363.637 163.977 -204.836 -967325 6.16528e+07 1.051e+06 -8307.77 -3068.31 -2920.85 0.05 
13214 1 -1.70257 -0.641346 7.00818 0 0 0 339.368 265.64 -0.896005 -387915 -3728.11 -579683 -3906.39 591.058 6069.55 0.05 
12444 1 -0.778895 -0.655478 7.0074 0 0 0 2.04535 135713 -112.761 -2.98489e+06 -9.6214e+08 -1.11577e+07 3944.65 -3958.84 -9534.95 0.05 
13698 1 -0.545735 -0.635225 7.00077 0 0 0 362.121 211.396 -5.59477 -973701 7.14201e+07 2.73077e+06 -3668.49 2457.17 2432.22 0.05 
3890 1 -3.4557 -0.604567 7.00435 0 0 0 444.506 0.117545 -0.0222873 245779 12714.3 -39.8079 1.2815 3947.3 792.38 0.05 
14036 1 -2.37309 -0.627815 7.00058 0 0 0 394.27 174.663 -77.2311 -0.785643 23372.6 -39.8079 -5492.48 5111.42 -5038.93 0.05 
7434 1 -1.82353 -0.602808 7.00841 0 0 0 24.9421 10283 -4.76465 3.25944e+06 -1.18591e+08 525811 6598.71 577.702 113.65 0.05 
13329 1 -1.32968 -0.595603 7.00407 0 0 0 430.604 256.334 -0.00463328 -0.0872492 10147.3 -39.8079 -1941.81 4204.42 -4716.37 0.05 
5912 1 -0.356938 -0.599849 7.0015 0 0 0 424.479 370.254 -1.82103 -540554 6.06413e+07 2.56537e+06 -6245.61 4413.95 3762.48 0.05 
11316 1 -2.81211 -0.558243 7.00167 0 0 0 290.256 175.02 -4.01514 -4.83202e+06 7.42207e+07 93596 -3264.68 4632.84 -4977.59 0.05 
11479 1 -2.45889 -0.535496 7.00345 0 0 0 299.364 220.075 -309.647 -0.986395 2502.28 -39.8079 -3219.48 -6393.67 6509.08 0.05 
12594 1 -0.814719 -0.549809 7.00679 0 0 0 303.112 -6.28442 -1.42379 132100 80250.9 -352650 -34.2336 4238.11 -304.845 0.05 
10556 1 -0.709514 -0.540883 7.00977 0 0 0 309.121 159.558 0.821771 -19489.7 -607819 1.48569e+06 -5295.04 3782.81 2917.01 0.05 
9307 1 -0.260276 -0.534485 7.00188 0 0 0 291.105 479.22 1.16768 0 2447.62 -39.8079 -3830.5 4721.73 1936.9 0.05 
12205 1 -3.12067 -0.503704 7.00383 0 0 0 226.845 -11.708 -78.4716 -6.84087e+06 4.27066e+08 -2.25057e+06 -3886.51 2301.7 1369.62 0.05 
7966 1 -2.02245 -0.519813 7.00054 0 0 0 271.21 261.384 -1.14493 -0.331749 1785.21 -39.8079 -5905.43 4623.78 3846.23 0.05 
10984 1 -1.50335 -0.506022 7.00173 0 0 0 247.252 161.795 -391.287 -13563.8 255811 -684381 -3868.38 4333.42 490.838 0.05 
13525 1 -1.3723 -0.491105 7.00924 0 0 0 218.819 325.302 -54.3698 -1.91835e+06 -834412 -109010 -3494.05 1945.74 4112.37 0.05 
1680 1 -1.26734 -0.499929 7.00904 0 0 0 0.0867079 77465.4 -242.816 3.73877e+07 -1.01305e+09 1.70955e+07 -42337.4 3410.78 -10096.7 0.05 
5517 1 -3.45571 -0.433792 6.99997 0 0 0 7005.14 -3.92389 -2.02834 -5.69671e+07 1.50694e+06 1.39934e+06 19.3515 -4440.89 5090.71 0.05 
6295 1 -3.22309 -0.473071 7.00746 0 0 0 126.306 223.491 -204.755 1.39485e+06 1.20122e+08 4.10819e+06 -6705.03 407.797 5638.49 0.05 
13644 1 -2.158 -0.467709 7.00066 0 0 0 108.576 75.1947 -158.622 2.90129e+07 -7.68287e+08 1.63339e+07 5192.6 -315.027 5162.98 0.05 
7418 1 -1.68383 -0.450607 6.99866 0 0 0 0.890269 278.433 -264.707 -0.163765 446.738 -39.8079 181.889 -2164.34 1394.11 0.05 
3483 1 -0.639524 -0.471519 7.0094 0 0 0 131.65 131.247 -1.29418 19489.7 611304 -1.48577e+06 -4498.54 1700.65 2246.09 0.05 
6072 1 -3.06717 -0.415899 7.00576 0 0 0 0.777227 -120.627 -100.472 40.6596 234.534 -39.8079 -2648.17 -4321.84 -1513.01 0.05 
11339 1 -2.0738 -0.372347 7.00527 0 0 0 3.30275 192.495 -116.954 -0.37318 107.934 -39.8079 -5258.1 -4623.39 4953.09 0.05 
12492 1 -1.42302 -0.403759 7.00833 0 0 0 -0.51558 284.147 -257.148 -0.10206 188.325 -39.8079 -2755.5 5907.27 4906.39 0.05 
2539 1 -1.1615 -0.407865 7.0089 0 0 0 0 0.00144914 -0.00028449 0 202.774 -39.8079 0 0 0 0.05 
6261 1 -0.775939 -0.372341 6.99796 0 0 0 0.305139 1.6845 -309.061 0 107.923 -39.8079 -1149.23 3748.88 41.1164 0.05 
11157 1 -0.354934 -0.411788 7.00165 0 0 0 -0.363799 253.589 -0.0298163 0 217.673 -39.8079 -2619.93 -3.18921 5536.32 0.05 
12860 1 -0.240014 -0.408804 7.00328 0 0 0 -2.57426 320.328 0.059976 988676 1.20699e+08 50332.9 -2441.22 -11.3004 -3400.18 0.05 
3298 1 -2.401 -0.351309 7.00634 0 0 0 65.2208 251.122 -207.485 -0.845753 74.8483 -39.8079 -7407.33 4969.75 -8391.18 0.05 
13080 1 -1.62999 -0.326487 7.0038 0 0 0 198.441 196.372 -2.94681 -3.76831e+07 4.19443e+08 1.68771e+07 -2280.1 1295.88 -7183.19 0.05 
11927 1 -1.26368 -0.327246 7.00107 0 0 0 0.226221 -336.624 -0.503291 -0.0783713 49.4362 -39.8079 1481.56 0.0700482 588.26 0.05 
11626 1 -3.33017 -0.292568 7.01007 0 0 0 303.047 -0.212918 -265.272 6957.01 27.2283 -39.8079 4436.21 -2902.13 -4277.21 0.05 
246 1 -1.97646 -0.307071 7.00776 0 0 0 260.68 227.106 -0.510833 -0.299319 34.9539 -39.8079 -4401.5 1334.13 -10537.5 0.05 
13413 1 -0.751365 -0.272269 7.0084 0 0 0 1.66895 5.0244 -73.202 335181 2.1586e+06 -55041.2 3081.32 66.5699 21.5072 0.05 
13443 1 -2.62429 -0.235383 7.00521 0 0 0 313.393 306.637 -303.102 -1.50096 9.93486 -39.8079 -9285.9 -1777.63 1566.2 0.05 
4622 1 -1.82111 -0.211861 7.01013 0 0 0 247.524 -333.481 -1.49574 -0.215034 6.4165 -39.8079 1618.76 921.204 5554.22 0.05 
11055 1 -1.58665 -0.223652 7.00947 0 0 0 283.309 -2.6527 -66.6518 4.74466e+06 -3.61752e+08 -4.79668e+08 -1457.91 3256.43 5170.92 0.05 
9031 1 -1.07493 -0.255676 7.00495 0 0 0 -0.349827 0.558174 -0.133464 0 14.3008 -39.8079 -36.4954 -0.289483 8.36268 0.05 
10863 1 -3.52157 -0.176212 7.00553 0 0 0 4492.45 -4.15789 -473.171 -2.79359e+07 -2.23563e+06 -1.23769e+06 -6589.39 1107.23 5450.55 0.05 
11894 1 -3.17343 -0.176268 7.00155 0 0 0 96.3152 4.40462 -2.56392 128567 1.5258e+06 -946749 -97.0856 679.146 3966.54 0.05 
7242 1 -1.01376 -0.157909 7.00649 0 0 0 0.575333 0.379948 -184.543 0 2.11841 -39.8079 3269.03 5355.09 3.02773 0.05 
12122 1 -0.561734 -0.185737 6.99888 0 0 0 -1.70846 -226.369 -439.783 6.67868e+06 -2.50724e+08 6.095e+06 919.525 2274.08 -3644.15 0.05 
13658 1 -0.159217 -0.166641 6.99938 0 0 0 0.111699 -114.117 -209.23 0 2.5703 -39.8079 1183.97 -5999.12 -4746.12 0.05 
12127 1 -2.82774 -0.11028 7.00631 0 0 0 0.149021 -17.5509 -51.8904 -1.45121 0.625699 -39.8079 -1219.28 2152.68 -731.6 0.05 
6839 1 -2.93614 -0.0589325 7.0006 0 0 0 91.1857 -7.34026 -0.645169 2.57416 0.086751 -39.8079 -34.7173 3569.02 -2026.01 0.05 
9952 1 -1.27508 -0.0730444 7.0053 0 0 0 83.8854 -335.815 -0.280664 -0.0798219 0.168605 -39.8079 779.265 3131.86 -3371.85 0.05 
13065 1 -0.446806 -0.0706169 7.00084 0 0 0 0.683197 -110.052 -0.247655 2.22965e+08 -4.1493e+06 -7.05086e+06 1281.44 15.8993 4458.01 0.05 
11753 1 -2.68357 -0.00855382 7.00453 0 0 0 157.74 105.97 -133.165 4.38784e+07 1.07779e+09 -9.0897e+06 1083.39 1686.88 4354.97 0.05 
13038 1 -2.38357 -0.0452369 7.01026 0 0 0 161.715 206.447 -1.61136 486377 -253805 -694824 -2254.33 5511.88 -8035.61 0.05 
9721 1 -2.21286 -0.044937 7.00071 0 0 0 122.864 -3.60597 0.173445 -0.521062 0.0378518 -39.8079 90.524 4807.09 -1539.58 0.05 
11177 1 -1.65856 -0.0167848 7.00174 0 0 0 142.286 -18.7228 -183.516 1.85745e+07 3.36593e+06 -4.71613e+08 1024.66 11449.2 101.235 0.05 
4198 1 -1.48604 -0.0456785 6.99793 0 0 0 90.4748 67.181 -96393.7 -5.06116e+06 653735 6.32353e+08 -21929.9 -4256.23 1058.42 0.05 
10773 1 -0.273205 -0.0417108 7.00106 0 0 0 0.330361 276.187 -136.995 -3.45725e+06 -3.14516e+08 -8.95607e+06 1699.63 3050.62 -4807.65 0.05 
9438 1 -3.51456 0.0219072 7.00379 0 0 0 4777.49 3.43264 0.907086 -4.66133e+07 -1.23722e+06 -1.38158e+06 -89.5086 1153.58 -2229.57 0.05 
1157 1 -1.05307 0.0220054 7.00782 0 0 0 115.779 0.284654 -0.332876 0 -0.00437069 -39.8079 -34.9352 4161.11 2477.71 0.05 
2032 1 -0.422478 0.0499837 7.00083 0 0 0 -0.761738 -173.504 -331.365 3.4982e+06 -2.1611e+08 -4.38585e+08 3873.29 1212.12 -103.491 0.05 
5587 1 -2.27464 0.0582504 7.00853 0 0 0 49.1615 0.161683 -94.3528 -0.608623 -0.0836997 -39.8079 -74.9332 5912.01 -1512.14 0.05 
4228 1 -2.03824 0.0884204 7.00416 0 0 0 118.515 36.5156 -5.19128 4.42978e+06 1.68092e+07 1.38413e+07 -644.376 4525.02 -62.4418 0.05 
5683 1 -1.90253 0.0572932 7.00453 0 0 0 26.0578 -107.735 -0.426293 1.44506e+06 -148862 4789.62 844.118 951.984 -5210.55 0.05 
9104 1 -0.714146 0.0637464 7.01025 0 0 0 91.3114 3.85663 -195.454 -273324 -86865.7 877088 3093.58 8670.26 -2689.81 0.05 
11421 1 -3.51675 0.154787 7.0034 0 0 0 4655.36 -122.353 -0.112598 -4.13813e+07 1.16688e+06 -801093 4006.69 392.66 3784.49 0.05 
11890 1 -2.84535 0.139965 6.99588 0 0 0 450.312 -143.623 -96298.7 5.35683e+06 -8.22362e+06 7.35688e+08 22745.3 -25459.1 3186.97 0.05 
1592 1 -1.43895 0.118809 7.00742 0 0 0 175.767 236.509 -226.107 -0.104893 -0.799533 -39.8079 -3519.82 91.4354 5863.85 0.05 
3720 1 -0.322177 0.114733 7.00093 0 0 0 143.364 313.586 -1.43707 0 -0.712472 -39.8079 -3241.05 5521.36 1523.92 0.05 
11518 1 -3.24938 0.185671 7.00237 0 0 0 4.48154 -199.825 -230.067 -3.18403e+06 -1.44218e+08 1.20353e+06 -3313.54 -2596.72 5248.08 0.05 
8568 1 -3.0218 0.188784 7.00797 0 0 0 1.948 -311.359 -0.183364 17.9527 -4.08514 -39.8079 3638.85 36.8077 3548.09 0.05 
11832 1 -2.59855 0.185814 7.00212 0 0 0 2.73041 -2.57463 -6.17649 745092 1.55254e+08 -352990 -258.811 3.95876 3189.83 0.05 
11037 1 -1.58272 0.169703 7.00184 0 0 0 73.8672 -0.0244458 -118.621 -0.135451 -2.7463 -39.8079 -1007.31 3774.08 1809.56 0.05 
5472 1 -1.06038 0.185041 7.00206 0 0 0 -0.480115 0.438006 -0.479862 0 -3.78632 -39.8079 -36.5086 0.40685 1.12942 0.05 
8636 1 -0.449237 0.158114 7.00616 0 0 0 120.445 -413.901 -0.683885 0 -2.12824 -39.8079 4452.07 4363.29 3557.15 0.05 
13760 1 -3.57957 0.253841 7.00092 0 0 0 1503.67 -181.801 -17.5879 3.08049e+07 -7.04536e+06 -4.89623e+08 5689.61 1938.36 29.6641 0.05 
10467 1 -3.39086 0.224772 7.00623 0 0 0 1.35642 -84.9628 0.559827 33431.1 -8.17589 -39.8079 894.762 -12.6496 -3680.03 0.05 
3741 1 -1.25446 0.223908 7.0102 0 0 0 0.444528 -331.801 -0.221745 -0.0772226 -8.04593 -39.8079 -7.20369 -1.50365 1997.48 0.05 
6836 1 -0.737038 0.27509 7.00343 0 0 0 -2.09812 5.42678 -225.999 2.66282e+07 -7.59067e+06 -6.55674e+08 801.36 3841.73 -23.9543 0.05 
8516 1 -0.701551 0.266484 6.95638 0 0 0 3.7359 -61.2571 -97643.9 -2.70702e+07 7.93624e+06 6.55165e+08 1827.93 8044.31 8290.17 0.05 
5181 1 -3.31129 0.345013 7.00141 0 0 0 340.178 -308.945 -1.13241 4462.84 -67.1309 -39.8079 3858.65 5791.69 -7304.2 0.05 
5457 1 -2.82981 0.322909 7.00473 0 0 0 219.112 0.6241 -65.9053 -1.42743 -45.886 -39.8079 -2818.02 6535.62 -4939.71 0.05 
4861 1 -2.72335 0.353261 7.00966 0 0 0 391.11 -163.662 -189.757 -502794 -189571 -701414 4513.77 3033.71 -10365.4 0.05 
9264 1 -2.58747 0.318406 7.01011 0 0 0 195.309 -97.3733 -1.00111 -1.37635 -42.4703 -39.8079 2085.51 5294.97 -196.299 0.05 
7879 1 -2.47249 0.352745 7.0101 0 0 0 383.677 63.2495 -1.19801 -1.0227 -76.7331 -39.8079 2402.55 5587.35 -4912.58 0.05 
13743 1 -2.13824 0.356314 7.00062 0 0 0 292.304 -33.5755 -243.352 2.56481e+08 -8.87185e+08 -2.0023e+07 5760.01 -158.071 -5884.85 0.05 
12717 1 -1.96458 0.366175 7.00125 0 0 0 246.141 -113.908 -0.573365 -208615 142166 -227985 2660.21 315.083 -2057.71 0.05 
5648 1 -1.35464 0.329396 7.00356 0 0 0 -0.0391789 -36.6413 -0.794949 -93595.2 130776 -18077 3938.32 -13.8277 -8077.69 0.05 
13166 1 -1.56203 0.41966 7.00302 0 0 0 70038.1 270.391 -3.90736 -8.05626e+08 -1.5626e+07 -1.07838e+07 -884.13 -70174.7 -30922.6 0.05 
11062 1 -0.771383 0.402332 7.00205 0 0 0 0.699002 3.07607 -0.887215 0 -183.562 -39.8079 -144.685 -1.31459 215.002 0.05 
12140 1 -0.470411 0.378742 7.00297 0 0 0 0.000543864 -290.737 -142.392 0 -120.752 -39.8079 10358.1 -2577.21 -2300.36 0.05 
12270 1 -0.206458 0.38045 7.01027 0 0 0 -0.264785 -105.306 -97.1213 0 -124.436 -39.8079 7066.34 3047.51 1720.32 0.05 
4450 1 -3.0954 0.4339 7.00507 0 0 0 324.78 -293.386 -0.900426 6.85873e+06 -9.78804e+07 -933366 2814.49 -60.7996 -498.24 0.05 
13401 1 -1.49074 0.444544 7.00586 0 0 0 27.2197 -368.608 -194.471 4.02443e+08 -7.95012e+07 -6.04673e+08 11172.6 1396.56 -1781.84 0.05 
13997 1 -1.31737 0.435282 7.0015 0 0 0 0.291073 -246.317 -0.19787 -0.0855024 -334.98 -39.8079 4166.26 15.5116 -8390.29 0.05 
12657 1 -1.2116 0.456747 7.00114 0 0 0 0.149443 -231.994 -0.112398 0 -502.189 -39.8079 996.856 -2.47231 6286.94 0.05 
13330 1 -0.0551532 0.426376 7.00397 0 0 0 1.29581 -321.743 -0.655855 879669 632838 -723745 -286.288 7.91289 3002.05 0.05 
12618 1 -3.5769 0.483213 6.99959 0 0 0 1268.02 -182.683 -328.392 4.40131e+07 1.43584e+06 -875471 4925.32 3135.02 2008.83 0.05 
2817 1 -2.63457 0.481569 7.00438 0 0 0 185.563 -233.514 -1.24105 -1.53549 -814.675 -39.8079 5470.18 -160.668 9756.99 0.05 
10857 1 -2.38415 0.480364 7.00856 0 0 0 208.259 69.1917 -8.50753 -0.808903 -795.416 -39.8079 775.796 -375.938 4610.69 0.05 
1235 1 -2.11758 0.524 7.00691 0 0 0 290.122 -455.897 -4.37583 -0.413534 -1951.73 -39.8079 4511.19 763.935 -5946.09 0.05 
13078 1 -1.40172 0.509562 7.00143 0 0 0 -1.33678 32.9322 -263.241 -0.0984205 -1439.23 -39.8079 638.305 4515.73 2594.61 0.05 
12409 1 -0.163606 0.481046 7.00725 0 0 0 0.00492049 -89.4913 -0.0196817 0 -806.25 -39.8079 -239.633 0.847826 -3950.1 0.05 
10883 1 -3.17125 0.531565 7.00856 0 0 0 8.28777 -284.567 -4.85267 4.70701e+06 -9.22954e+07 -1.21556e+06 1858.27 101.234 -2737.59 0.05 
3048 1 -3.04697 0.568725 7.00355 0 0 0 2.25764 -312.298 -0.304442 28.404 -5304.36 -39.8079 3755.63 52.6541 108.242 0.05 
3352 1 -1.51552 0.551675 7.00691 0 0 0 -1.53125 -238.29 -102.196 -0.119954 -3584.33 -39.8079 3792.27 -4411.26 -4471.29 0.05 
3963 1 -0.262194 0.566234 6.95066 0 0 0 2.57349 221.302 -97626.3 -3.52369e+06 1.66283e+07 4.70552e+08 -5657.6 -19303.2 -6524.85 0.05 
13715 1 -1.90689 0.599284 7.00386 0 0 0 8.89668 -87.9061 -73.2274 2.35723e+08 -4.66665e+07 4.84736e+06 3291.56 -2168.73 -3058.06 0.05 
13544 1 -1.42286 0.608489 7.0067 0 0 0 22.4941 -40.2179 -76.359 320160 -416235 -944073 7599.27 2759.67 5395.62 0.05 
13720 1 -3.0335 0.675201 7.00918 0 0 0 319.89 -342.262 -0.632618 22.2709 -91571.1 -39.8079 2873.36 6100.38 -4091 0.05 
10007 1 -2.65192 0.637119 7.00383 0 0 0 419.021 -316.001 -101.149 -1.5926 -30134.1 -39.8079 5976.28 951.447 -8262.05 0.05 
11300 1 -2.10224 0.639738 7.00816 0 0 0 292.352 -467.724 -2.04532 -0.39882 -32406.2 -39.8079 5402.48 4562.85 -177.64 0.05 
8166 1 -1.99848 0.637411 7.00049 0 0 0 135.252 -217.738 -0.170056 -215400 616152 395950 5025.22 3986.27 333.354 0.05 
13670 1 -1.25999 0.664664 7.00023 0 0 0 8.60283 -333.439 -0.769013 3.33641e+08 -4.13075e+06 -1.44888e+07 1500.95 238.678 1029.24 0.05 
5082 1 -0.782966 0.647972 7.00553 0 0 0 0.61486 2.20152 -0.772627 0 -40864.4 -39.8079 -168.794 4.53434 330.62 0.05 
12413 1 -0.277153 0.636483 7.00183 0 0 0 2.41693 -179.691 -405.688 5.40778e+06 -8.36959e+07 -4.72764e+08 5717.67 6737 203.552 0.05 
1098 1 -0.0776933 0.647337 7.00135 0 0 0 -0.280266 -342.452 -0.068307 0 -40132.3 -39.8079 97.9772 0.0352206 -447.284 0.05 
11065 1 -0.676984 0.687252 7.00041 0 0 0 0.23069 -2.4272 -309.039 19501.2 -1.2297e+06 -129910 -3970.56 9.63033 -3.70631 0.05 
13682 1 -3.49746 0.7778 6.9974 0 0 0 228.712 -189.196 -369.49 9.29958e+06 -3.6237e+07 -3.25533e+06 -1395.7 8121.31 -1812.92 0.05 
13918 1 -3.39461 0.767455 7.00219 0 0 0 334.513 -140.014 -98.0067 -25686.3 -1.3237e+07 -897954 4925.22 5030.67 -7774.01 0.05 
8765 1 -2.64454 0.740663 7.00021 0 0 0 458.574 -291.658 0.209069 -1.56856 -871380 -39.8079 6231.04 8990.58 8896.36 0.05 
5525 1 -1.71699 0.758729 7.00141 0 0 0 262.199 -119.527 -326.776 -1.59345e+06 -3.08077e+07 -1.51795e+06 1984.2 10866.9 499.139 0.05 
13280 1 -1.58157 0.751845 7.0024 0 0 0 269.924 -45.999 -2.56661 443886 -1.47764e+07 -1.24346e+06 369.364 8143.47 430.441 0.05 
1151 1 -1.13875 0.740699 7.0054 0 0 0 136.318 -41.2459 -201.813 1.90416e+08 -4.48191e+06 7.47579e+06 6412.48 6048.85 -4735.86 0.05 
3407 1 -0.60313 0.756956 7.01016 0 0 0 -0.39532 -268.545 -108.482 -301600 -1.04534e+07 -267456 7101.52 -3973.5 -4181.26 0.05 
12807 1 -0.281135 0.74642 7.0011 0 0 0 0.941085 -339.785 -6.03467 -426705 -2.87039e+07 -150453 3192.94 -27.1017 1606.92 0.05 
7302 1 -3.50948 0.791782 7.00559 0 0 0 410.195 -3572.66 -299.483 5.84237e+06 5.19151e+07 279897 1582.32 4809.22 -319.485 0.05 
12715 1 -3.0901 0.791242 7.00511 0 0 0 525.261 -606.905 -176.466 1.8195e+07 -3.20579e+06 -7.26909e+08 4563.11 8625.73 2336.66 0.05 
10867 1 -3.07264 0.796311 6.99834 0 0 0 405.469 -469.631 -95438.8 -6.13259e+06 -1.22798e+07 1.18506e+09 -14357.5 26055.9 991.786 0.05 
12133 1 -2.35271 0.795153 7.00891 0 0 0 159.908 -3515.16 1.72291 -667363 2.9385e+07 252346 -1897.06 4330.6 3549.34 0.05 
10960 1 -1.22112 0.805711 6.95547 0 0 0 595.906 -3046.57 -97780 -1.50519e+07 -3.13055e+07 5.17216e+08 -89871.4 -10924 9761.75 0.05 
12721 1 -0.945829 0.811395 7.00698 0 0 0 -0.58925 -2726.36 -194.467 -304090 -5.74696e+06 1.53774e+06 4811.23 6479 -931.666 0.05 
12971 1 -0.488414 0.817908 7.00593 0 0 0 0.346602 -873.931 -376.999 -135787 -2.84337e+07 -582818 5297.32 -1728.13 -646.516 0.05 
8282 1 -0.132561 0.798768 7.00935 0 0 0 0.0259048 -520.314 -0.159566 0 -1.1019e+07 -39.8079 5218.66 8.24512 -5141.88 0.05 
196 1 -3.09803 -0.824401 7.01086 0 0 0 0.131359 1960.13 -146.653 2.63296e+06 7.24113e+07 -4.84211e+08 -10619.5 404.501 1993.7 0.05 
12129 1 -2.96994 -0.816172 7.01216 0 0 0 359.47 130619 -5.55346 -4.55676e+07 -1.59144e+09 -1.38849e+07 2802.45 2564.93 -8627.13 0.05 
5328 1 -2.50437 -0.810148 7.04099 0 0 0 24.3867 540.492 -132.569 -1.1127 1.97237e+07 -39.8079 -6425.42 5100.7 6678.67 0.05 