ITEM: TIMESTEP
430000
ITEM: NUMBER OF ATOMS
14052
ITEM: BOX BOUNDS ff pp ff
-3.75 3.75
-1 1
0 10
ITEM: ATOMS id type x y z ix iy iz vx vy vz fx fy fz omegax omegay omegaz radius 
13821 1 -1.59504 -0.509227 2.48251 0 0 0 0.275183 105.582 -171857 -0.138557 1429.22 -39.8868 4511.3 3783.37 -2558.63 0.05 
9412 1 -2.15411 -0.351444 2.47422 0 0 0 1.89464 14.6515 -171840 -0.4513 75.0232 -39.8878 -9278.38 13846.1 5701.27 0.05 
10206 1 -3.2217 0.647181 2.53739 0 0 0 223.628 -338.542 -170107 669.982 -39954.2 -39.8079 5136.14 -10974 -8981.36 0.05 
12795 1 -2.97901 -0.31987 2.60547 0 0 0 496.068 -76.1833 -168732 7.67877 43.5519 -39.8079 -10403.9 3184.62 3882.04 0.05 
13215 1 -0.227494 -0.094923 2.58829 0 0 0 -0.415757 615.338 -169069 0 0.385329 -39.8079 56.5582 22216.6 -6775.57 0.05 
7183 1 -0.750538 -0.356914 2.69431 0 0 0 -0.775491 310.249 -166448 0 82.4834 -39.8079 -12783.2 -9045.73 -4366.71 0.05 
4371 1 -1.71272 0.395889 2.67044 0 0 0 0.978136 -152.086 -167037 -0.173172 -163.581 -39.8079 17513.9 -2599.57 17.1685 0.05 
11397 1 -0.43041 0.755106 2.68387 0 0 0 0.381765 49.086 -166689 0 -1.54582e+06 -39.8079 9019.46 16450.5 -5556.43 0.05 
12202 1 -1.69612 -0.492071 2.78813 0 0 0 179.822 82.5043 -164076 -0.167688 1005.41 -39.8079 9591.61 11592.2 3632.57 0.05 
10576 1 -3.26572 0.232974 2.78226 0 0 0 288.586 -171.665 -164748 1636.89 -9.50787 -39.8079 -34639.3 13625.1 1203.32 0.05 
13017 1 -1.48728 -0.786082 2.8333 0 0 0 0.909248 601.115 -163153 -0.114105 5.97854e+06 -39.8079 -24189.3 -7438.98 3021.17 0.05 
8448 1 -0.48347 -0.794375 2.96779 0 0 0 0.508839 377.03 -159922 0 8.87834e+06 -39.8079 -5624.8 -12451.1 599.922 0.05 
11202 1 -0.848309 0.254171 3.00195 0 0 0 123.447 238.648 -159224 0 -13.9239 -39.8079 -9912.06 27218.7 2176.75 0.05 
13635 1 -1.11896 0.672612 2.98249 0 0 0 1.12983 -249.17 -159669 0 -84570.8 -39.8079 23219.4 1106.72 3265.97 0.05 
11049 1 -2.64705 -0.218559 3.06909 0 0 0 133.741 -5.57847 -157302 -1.57679 7.28167 -39.8079 18.8217 -15907.8 3665.63 0.05 
9405 1 -1.49185 0.139557 3.07586 0 0 0 152.194 300.962 -157447 -0.115027 -1.37555 -39.8079 -12606.9 -4243.76 -2423.02 0.05 
12319 1 -0.0529363 0.162161 3.06922 0 0 0 -0.207636 85.6351 -158386 0 -2.32959 -39.8079 -4133.99 98548.8 -3973.59 0.05 
12761 1 -0.541562 0.526087 3.12568 0 0 0 0.273628 -327.098 -156298 0 -2040.93 -39.8079 16792.2 -12762.6 -880.602 0.05 
13254 1 -1.96443 0.52962 3.14393 0 0 0 -0.150738 27.6353 -155765 -0.291486 -2202.29 -39.8079 -7367.64 -23625.4 3565.41 0.05 
11924 1 -1.4842 0.888803 3.13972 0 0 0 -0.0764036 -132380 -156147 -0.113487 -4.15174e+09 -39.8079 -6970.43 -4104.63 9276.99 0.05 
11242 1 -1.16453 0.576056 3.18431 0 0 0 -0.0422323 -200.735 -155175 0 -6306.38 -39.8079 11388 -13157.8 4496.39 0.05 
12566 1 -1.89762 0.268806 3.2594 0 0 0 77.5525 -317.074 -153211 -0.252276 -18.0211 -39.8079 -16700 2013.15 5382.68 0.05 
12900 1 -3.48408 0.794359 3.27736 0 0 0 312.782 -555.975 -151839 677977 -8.8716e+06 -39.8079 -23920.6 40304.7 -3110.64 0.05 
8681 1 -0.510997 0.811612 3.23319 0 0 0 -0.925695 -847.361 -153783 0 -2.13106e+07 -39.8079 -50699.1 11980.1 1235.89 0.05 
12455 1 -2.35561 -0.306049 3.44639 0 0 0 1.67213 168.304 -148866 -0.750382 34.3452 -39.8079 7925.15 12355.5 -4376.61 0.05 
4032 1 -1.64333 0.248384 3.44152 0 0 0 0.993795 310.862 -148998 -0.151614 -12.5599 -39.8079 9126.22 20299.1 3259.07 0.05 
7677 1 -1.36622 0.534977 3.44623 0 0 0 -0.253297 -136.768 -149126 -0.0927067 -2474.05 -39.8079 -7104.88 7447.28 662.835 0.05 
11415 1 -0.874132 0.811195 3.47076 0 0 0 238.893 -1005.08 -148344 0 -2.08447e+07 -39.8079 -96357.5 -10605.3 1405.99 0.05 
8255 1 -3.29083 -0.427741 3.53028 0 0 0 175.985 68.4663 -146740 2812.74 291.32 -39.8079 -29492.7 -11449 4606.84 0.05 
10609 1 -1.77683 -0.323448 3.5002 0 0 0 1.51252 -165.219 -147349 -0.196566 46.3126 -39.8079 27672.1 -1753.56 3676.46 0.05 
13781 1 -2.52434 -0.000968312 3.63773 0 0 0 31.3856 1.24119 -144580 -1.17251 3.70433e-07 -39.8079 5489.15 -18032.1 -657.816 0.05 
6492 1 -1.6964 0.7554 3.68891 0 0 0 110.525 -203.173 -142339 -0.16778 -1.56451e+06 -39.8079 16696.9 -12891.1 2389.16 0.05 
12363 1 -3.14624 -0.4115 3.72652 0 0 0 355.596 239.597 -142172 163.871 216.538 -39.8079 8225.56 -3555.31 5490.18 0.05 
7639 1 -0.95468 -0.190674 3.73222 0 0 0 -1.0914 165.7 -141912 0 4.24348 -39.8079 15457.6 21674 1082.4 0.05 
9165 1 -2.43576 -0.768552 3.76125 0 0 0 69.1415 67.1432 -141097 -0.927532 2.71943e+06 -39.8079 -44682.4 13410.2 -3042.24 0.05 
6487 1 -3.35263 -0.322217 3.75348 0 0 0 396.862 223.839 -141599 12103.2 45.3436 -39.8079 12836.7 -22377.9 -7704.65 0.05 
10766 1 -2.77248 0.0150114 3.85171 0 0 0 274.323 -645.343 -139270 -1.77928 -0.00138355 -39.8079 -41199.7 -4787.51 941.861 0.05 
13278 1 -2.04198 0.796282 3.80306 0 0 0 147.39 -1213.91 -140221 -0.346811 -9.74541e+06 -39.8079 -69159.6 7820.31 8625.9 0.05 
11852 1 -2.18234 -0.534766 3.85856 0 0 0 209.781 264.792 -138928 -0.483338 2462.69 -39.8079 11897.3 19456.2 984.161 0.05 
12207 1 -0.638598 0.170483 3.86981 0 0 0 -0.261889 -17318 -139063 0 -2.79267 -39.8079 -20262.1 -18969.9 601.985 0.05 
3777 1 -2.73378 -0.772147 3.90818 0 0 0 477.102 46657.7 -137498 -1.79135 3.18034e+06 -39.8079 2511.96 -4716.12 -2155.11 0.05 
11713 1 -2.15082 -0.261358 3.91936 0 0 0 187.819 -811.193 -137639 -0.447734 15.8115 -39.8079 12852.1 -8865.71 6541.5 0.05 
9454 1 -2.46686 -0.119529 3.92072 0 0 0 23.8613 148.175 -137789 -1.00751 0.815715 -39.8079 8704.99 5585.32 2765.96 0.05 
3037 1 -0.655354 0.0306427 4.01829 0 0 0 51.9572 -3.79083 -135437 0 -0.0118607 -39.8079 -3964.81 -4136.05 3439.81 0.05 
9289 1 -0.142835 0.317057 4.04991 0 0 0 1.1644 -131.287 -134108 0 -41.4974 -39.8079 -3624.17 -6460.88 4435.75 0.05 
10622 1 -2.52954 -0.515483 4.10873 0 0 0 149.526 3.09755 -132670 -1.18848 1629.14 -39.8079 -19546.9 30099.5 -1973.68 0.05 
9291 1 -0.582902 -0.164709 4.14452 0 0 0 0.867404 -55.9492 -132285 0 2.46411 -39.8079 9808.39 -21308.2 -682.456 0.05 
1298 1 -2.31894 -0.550815 4.22063 0 0 0 79.3297 274.93 -130642 -0.681995 3515.45 -39.8079 5833.24 8835.42 -5717.94 0.05 
6601 1 -3.06455 -0.238671 4.22047 0 0 0 222.059 156.804 -130485 38.8186 10.5461 -39.8079 1511.83 7088.19 3380.35 0.05 
8417 1 -2.52952 0.0911409 4.23715 0 0 0 9.37303 66461.2 -129879 -1.18845 -0.338439 -39.8079 7807.19 -6700.52 1209.71 0.05 
11208 1 -0.922928 0.314201 4.36179 0 0 0 -0.489781 -313.998 -127289 0 -39.5106 -39.8079 -18203.6 16205.6 -2992.52 0.05 
10028 1 -3.44183 0.692399 4.35677 0 0 0 387.116 -271.964 -126502 154994 -157901 -39.8079 44558.4 21410.1 2807.04 0.05 
11214 1 -1.90696 0.800539 4.41007 0 0 0 194.512 -993.111 -125393 -0.25735 -1.20374e+07 -39.8079 -70915.1 587.244 -4847.1 0.05 
2112 1 -1.3732 -0.397499 4.47733 0 0 0 111.049 -54.544 -124158 -0.0937959 168.35 -39.8079 1233.91 1872.77 1305.06 0.05 
206 1 -2.29012 -0.75997 4.53247 0 0 0 83.4541 71.6424 -122356 -0.633172 1.88941e+06 -39.8079 -18401.5 -18084.4 1061.65 0.05 
9911 1 -2.30336 -0.193069 4.61641 0 0 0 90.3066 -152.24 -121287 -0.655082 4.45173 -39.8079 -9458.35 6156.14 792.257 0.05 
13478 1 -2.78564 0.407361 4.58115 0 0 0 449.637 -45.6364 -121456 -1.7437 -200.937 -39.8079 -10129.5 -26863.5 2476.92 0.05 
4730 1 -2.34588 0.569268 4.59272 0 0 0 334.723 -235.073 -121644 -0.731512 -5372.32 -39.8079 20948.1 -7961.38 -4366.16 0.05 
8660 1 -2.89237 -0.776652 4.63984 0 0 0 534.999 454.297 -119849 0.0289408 3.8836e+06 -39.8079 14477.5 -14760.4 -8301.81 0.05 
12559 1 -2.24624 -0.771795 4.65204 0 0 0 32464 50.3805 -119774 -0.566387 3.13161e+06 -39.8079 -43723.8 -25383.5 -13862.8 0.05 
13047 1 -1.47138 -0.503477 4.70501 0 0 0 2.72496 121.492 -118930 -0.110966 1268.82 -39.8079 -5261.26 -2525.86 1985.84 0.05 
4350 1 -1.93871 -0.588143 4.7375 0 0 0 93.4383 630.495 -117650 -0.275565 8441.38 -39.8079 -12400.1 -42919.9 4136.68 0.05 
3659 1 -1.15939 -0.606126 4.75554 0 0 0 5.16334 430.763 -117801 0 13229.8 -39.8079 2733.13 11103 -565.496 0.05 
9947 1 -0.484486 -0.211079 4.74748 0 0 0 0.987894 -342.507 -117774 0 6.32172 -39.8079 -10103.5 12433.8 10082.9 0.05 
7680 1 -0.230754 0.660176 4.73648 0 0 0 -0.0890154 3.28082 -117826 0 -58205.8 -39.8079 -7670.81 -7350.76 -6526.56 0.05 
12040 1 -3.18746 0.0903032 4.87052 0 0 0 471.714 -356.738 -114849 348.169 -0.32864 -39.8079 15089.1 17082 -86.3417 0.05 
11268 1 -1.9323 -0.198689 4.90436 0 0 0 1.76208 -81.2142 -114222 -0.271763 4.97516 -39.8079 29864.8 -3618.73 -685.673 0.05 
7591 1 -0.677 0.715828 4.93505 0 0 0 -0.00815119 67.4332 -113236 0 -348974 -39.8079 14341 -7770.88 7549.9 0.05 
12192 1 -0.206418 0.178835 4.98773 0 0 0 2.37786 -93.6073 -112466 0 -3.33166 -39.8079 19408.4 -524.192 3250.39 0.05 
13500 1 -0.50736 -0.51178 5.02929 0 0 0 1.06112 -118915 -111014 0 1507.4 -39.8079 38161.3 9002.19 3337.92 0.05 
8359 1 -2.1851 0.0528576 5.09629 0 0 0 77.7597 -401.521 -109586 -0.486614 -0.0621286 -39.8079 -5819.2 -7486.86 -11905.4 0.05 
9169 1 -1.88516 0.356042 5.11485 0 0 0 34.9853 72468.5 -109754 -0.2457 -81.2446 -39.8079 18361.9 -32131.1 19347.1 0.05 
10939 1 -2.73778 0.641577 5.10814 0 0 0 188.799 39.7917 -108479 -1.79498 -34112.5 -39.8079 3906.56 21481.6 603.853 0.05 
13249 1 -1.23434 -0.747574 5.15034 0 0 0 199.43 546.128 -107671 0 1.14173e+06 -39.8079 -27288.1 23601.4 -625.568 0.05 
13159 1 -3.54936 0.483346 5.16044 0 0 0 923.929 -477.742 -107355 1.13471e+07 -843.988 -39.8079 -17199.1 -37408.3 -2407.07 0.05 
8437 1 -3.41266 0.751151 5.14702 0 0 0 585.229 38137 -108235 62643.1 -1.31694e+06 -39.8079 19327.7 -34445.8 -4832.02 0.05 
12032 1 -2.87519 -0.334967 5.27395 0 0 0 290.307 -84.2953 -104733 -0.551068 56.4571 -39.8079 4790.94 -28224.8 3147.42 0.05 
13964 1 -0.207492 -0.244397 5.28542 0 0 0 -1.73267 -435.101 -104936 0 11.6939 -39.8079 -4294.31 -12211.4 -775.338 0.05 
6590 1 -3.55317 -0.130592 5.27865 0 0 0 754.589 131.805 -105312 1.37473e+07 1.09708 -39.8079 6267.37 -36918.6 8012.27 0.05 
9303 1 -0.349086 -0.119004 5.28082 0 0 0 0.589332 122.437 -105137 0 0.803884 -39.8079 -13928.1 -5148.38 933.195 0.05 
1859 1 -2.69889 0.25872 5.29258 0 0 0 110.629 -566.061 -104579 -1.72875 -15.0922 -39.8079 -5784.6 4348.33 5790.38 0.05 
12315 1 -3.41786 0.443112 5.27245 0 0 0 198.655 122.553 -105651 73209.9 -387.783 -39.8079 29274.3 -39488.5 7802.64 0.05 
6890 1 -2.1665 0.31474 5.3435 0 0 0 130.388 247.473 -103525 -0.465034 -39.878 -39.8079 2141.05 14005.6 -3014.62 0.05 
4674 1 -1.59869 0.566372 5.32849 0 0 0 169.282 83.8262 -103803 -0.139492 -5020.76 -39.8079 24967.3 -9431.76 9902.63 0.05 
13236 1 -3.13638 -0.238282 5.3692 0 0 0 271.394 -26401 -102743 137.386 10.472 -39.8079 1781.1 -1637.86 4576.29 0.05 
271 1 -3.47147 -0.158639 5.36766 0 0 0 267.428 194.947 -103281 426551 2.15351 -39.8079 -6456.94 40297.8 -4579.49 0.05 
11483 1 -1.88836 -0.693517 5.43586 0 0 0 4.93022 4887.73 -101314 -0.247366 163763 -39.8079 65648.3 -5559.14 -2364.46 0.05 
7042 1 -1.6887 0.358551 5.48195 0 0 0 223.827 -12654.7 -100089 -0.165306 -84.8607 -39.8079 -34206.3 -5516.62 3736.18 0.05 
13162 1 -0.41295 0.0446777 5.53232 0 0 0 109.41 261.21 -98328.8 0 -0.0371909 -39.8079 336.558 -9142.93 2716.89 0.05 
3372 1 -1.59222 -0.0166571 5.56979 0 0 0 4.82462 104.867 -98057.9 -0.137837 0.00189137 -39.8079 -23909.3 -10681.9 -2635.59 0.05 
8516 1 -0.701531 0.265636 5.59022 0 0 0 1.42313 -60.5683 -97581.6 0 -17.047 -39.8079 2073.26 9071.94 8287.91 0.05 
3963 1 -0.262159 0.569341 5.58414 0 0 0 2.44269 221.945 -97608.4 0 -5381.48 -39.8079 -5048.29 -19173.1 -6525.2 0.05 
10960 1 -1.21279 0.762842 5.5868 0 0 0 595.398 -3069.87 -97761.7 0 -2.13109e+06 -39.8079 -90095.7 -10669.7 9763.8 0.05 
10345 1 -3.09067 -0.679089 5.62383 0 0 0 128.2 5019.8 -96029.9 61.4229 103312 -39.8079 52479.7 4063.3 -1435.06 0.05 
4198 1 -1.48479 -0.0447369 5.64869 0 0 0 89.7897 67.2626 -96374.1 -0.113605 0.037341 -39.8079 -21743.3 -3519.48 1061.91 0.05 
11890 1 -2.83903 0.137952 5.64897 0 0 0 451.004 -143.809 -96205.9 -1.30723 -1.32205 -39.8079 22358.7 -25560.3 3189.61 0.05 
13612 1 -1.5179 -0.180789 5.66638 0 0 0 62.0346 -322.345 -95748.3 -0.120464 3.4695 -39.8079 -15597.4 371.408 3250.97 0.05 
13505 1 -0.162509 0.260357 5.66327 0 0 0 153.17 69735 -96226 0 -15.5349 -39.8079 23766.4 5473.26 -5383.39 0.05 
10867 1 -3.06702 0.789503 5.66438 0 0 0 400.747 -499.924 -95278.5 40.5526 -7.02472e+06 -39.8079 -14545.6 26999.2 991.261 0.05 
13274 1 -1.34181 -0.794759 5.71701 0 0 0 153.741 219.843 -94381.9 -0.089016 9.04588e+06 -39.8079 2351.61 -12550.2 -462.172 0.05 
9422 1 -1.45286 0.43105 5.7423 0 0 0 145.633 -279.523 -93780.3 -0.107445 -309.68 -39.8079 5125.03 2882.75 6268.6 0.05 
12344 1 -0.1048 -0.232397 5.77599 0 0 0 -0.974427 -381.27 -92491.4 0 9.40811 -39.8079 -1449.49 -3011.39 12858.7 0.05 
12661 1 -3.53285 0.28176 5.76809 0 0 0 625.329 -45.1973 -93168.8 5.14651e+06 -22.5843 -39.8079 15991.1 -5875.18 -3027.09 0.05 
4108 1 -0.716676 -0.611486 5.82598 0 0 0 8.49039 343.152 -91544.4 0 15183.5 -39.8079 23231 11283.8 -603.078 0.05 
11228 1 -0.851711 0.671848 5.837 0 0 0 212.248 -292.33 -91138.1 0 -82616.8 -39.8079 26710.5 22515 882.167 0.05 
10394 1 -1.97605 -0.797788 5.90338 0 0 0 455.702 919.377 -89839.8 -0.299052 1.04961e+07 -39.8079 48274.2 4032.71 470.026 0.05 
10294 1 -1.68148 -0.715341 5.88338 0 0 0 8.9747 -84.926 -90196.4 -0.163027 343049 -39.8079 15261.7 -5016.74 -2015.43 0.05 
7105 1 -1.48371 -0.377835 5.86894 0 0 0 154.374 -258.265 -90828.2 -0.11339 118.841 -39.8079 15953.6 -388.134 9770.12 0.05 
3780 1 -0.872633 -0.0791012 5.89747 0 0 0 214.749 -236.551 -90065.6 0 0.216305 -39.8079 10985.2 15940 -3369.77 0.05 
6232 1 -3.3796 -0.585248 5.92593 0 0 0 598.058 593.156 -89029.1 24525.2 7866.12 -39.8079 -27584.8 35113.1 -8282.62 0.05 
11247 1 -2.36884 -0.0814101 5.93043 0 0 0 281.584 -280.537 -89138.6 -0.7769 0.23677 -39.8079 20176.5 16917.6 2779.55 0.05 
8380 1 -0.565045 -0.680183 5.98355 0 0 0 156.055 462.101 -88010.4 0 106907 -39.8079 -75.1218 -1963.71 6907.18 0.05 
11812 1 -2.0186 -0.409851 6.03221 0 0 0 8.26129 65.9614 -86739.4 -0.328882 210.176 -39.8079 -10600.1 -24162.6 9882.96 0.05 
1210 1 -0.287025 0.253522 6.04818 0 0 0 0.254153 226.035 -86541 0 -13.7643 -39.8079 28407.2 -2975.74 -16011.4 0.05 
11567 1 -2.3455 0.658891 6.05659 0 0 0 176.814 -583.388 -85965.3 -0.730784 -56045.6 -39.8079 1786.99 -21168.7 -7103.01 0.05 
13012 1 -1.05075 -0.636296 6.12174 0 0 0 394.42 185.052 -84787.3 0 29457.1 -39.8079 21567.3 -6382.23 -849.642 0.05 
13755 1 -0.903032 -0.275458 6.0783 0 0 0 3.04535 472.909 -85593.1 0 20.2409 -39.8079 -25575.7 30462.9 -6314.97 0.05 
9416 1 -3.55204 0.0583499 6.0972 0 0 0 884.422 -10.5578 -85264.2 1.29838e+07 -0.0841404 -39.8079 -16972.8 -56184.6 4454.39 0.05 
4329 1 -2.28176 0.24172 6.0884 0 0 0 436.396 -111.317 -84885.3 -0.619774 -11.1436 -39.8079 -2387.67 -15375.5 689.759 0.05 
13282 1 -3.21581 0.437206 6.10965 0 0 0 370.898 -563.587 -84482.6 597.313 -347.202 -39.8079 20389 -43565.5 -11889.1 0.05 
11916 1 -1.8623 0.437483 6.07894 0 0 0 70.8084 -59.159 -85731.7 -0.234172 -348.995 -39.8079 21488.1 5883.66 -749.099 0.05 
8433 1 -1.98814 -0.116822 6.20987 0 0 0 90.5099 -85.5952 -82741.8 -0.307177 0.75615 -39.8079 -27629.9 -1613.83 63.4766 0.05 
11564 1 -3.51371 0.827854 6.17843 0 0 0 322.228 -85559.5 -82607.4 2.21051e+06 -5.25031e+07 -39.8079 261.991 23243.1 7058.2 0.05 
13957 1 -0.59862 -0.80209 6.24918 0 0 0 -0.438965 668.136 -81583.4 0 1.3015e+07 -39.8079 59375.1 20431 -1552.29 0.05 
3281 1 -1.80467 -0.498506 6.26259 0 0 0 79.8529 308.96 -80747.1 -0.207938 1145.82 -39.8079 26017.5 -1559.52 -5358.65 0.05 
9961 1 -3.53824 -0.450075 6.25471 0 0 0 489.975 185.325 -80410.8 6.61719e+06 442.248 -39.8079 31142.8 -24806.9 -9770.97 0.05 
12325 1 -2.51034 -0.289274 6.23903 0 0 0 567.319 149.826 -81643.2 -1.13031 25.7225 -39.8079 3195.34 13151 3670.74 0.05 
12952 1 -2.7614 -0.21459 6.23588 0 0 0 194.592 498.246 -81769.9 -1.795 6.75728 -39.8079 -5596.16 13792.8 -4217.11 0.05 
7835 1 -1.02189 -0.108091 6.31251 0 0 0 265.872 325.825 -79933.1 0 0.586061 -39.8079 -18124.5 -28720.3 5095.93 0.05 
5927 1 -0.693438 -0.7127 6.36978 0 0 0 0.751385 4255.58 -78576.9 0 312766 -39.8079 45653.4 -463.853 2434.88 0.05 
13010 1 -2.88989 0.485517 6.34528 0 0 0 451.052 282.257 -78615.9 -0.0660684 -881.353 -39.8079 11212.3 -23202.4 2727.87 0.05 
11203 1 -0.298216 0.769793 6.33752 0 0 0 59.4273 38.7626 -78279 0 -2.86965e+06 -39.8079 -16840.2 -19091.4 7106.99 0.05 
6997 1 -1.25694 -0.794478 6.3932 0 0 0 7.76568 2025.73 -77910.7 -0.0775289 8.92294e+06 -39.8079 104188 -3819 10772.9 0.05 
12277 1 -2.53025 -0.700517 6.41751 0 0 0 325.726 565.393 -76782.4 -1.1907 206386 -39.8079 5654.59 -17783.4 -7973.42 0.05 
10018 1 -2.74404 -0.122457 6.41434 0 0 0 265.188 264.743 -77504.8 -1.79876 0.884073 -39.8079 -8288.21 -4563.39 -8281.17 0.05 
3539 1 -0.254937 -0.675693 6.44723 0 0 0 229.158 250.919 -76730.4 0 92971.4 -39.8079 -28886.6 8081.73 7369.33 0.05 
7469 1 -0.105034 -0.65161 6.44909 0 0 0 4.7581 46.7666 -76297.7 0 45351.1 -39.8079 -2407.67 -5808.57 -2764.24 0.05 
11555 1 -0.791786 -0.551398 6.51564 0 0 0 363.825 -220.845 -74082.9 0 3561.99 -39.8079 -11791.8 -17522.3 961.235 0.05 
11344 1 -0.267165 -0.565389 6.49811 0 0 0 5.43804 -4.49113 -75193.8 0 4907.3 -39.8079 23001.7 -936.71 4012.35 0.05 
6901 1 -0.0537486 0.037237 6.48915 0 0 0 0.461508 -3.09134 -76635.4 0 -0.0213887 -39.8079 -22917.7 104160 1454.02 0.05 
13458 1 -3.34191 -0.109955 6.57435 0 0 0 181.801 -41.682 -73559 9259.67 0.619687 -39.8079 18407.7 -12866.5 -4957.3 0.05 
2425 1 -2.46198 0.237215 6.55329 0 0 0 66.0808 471.966 -74051.8 -0.994515 -10.2712 -39.8079 5905.47 -5917.71 7310.86 0.05 
12466 1 -2.08266 0.244105 6.58394 0 0 0 300.262 151558 -73491 -0.380945 -11.6326 -39.8079 5353.66 -9415.89 6519.21 0.05 
8541 1 -1.63812 0.221814 6.59113 0 0 0 6.86351 25451 -73294.3 -0.150135 -7.73854 -39.8079 13423.6 -24549.3 -4350.63 0.05 
2973 1 -1.8774 -0.317094 6.68019 0 0 0 120.55 77.8664 -70439.4 -0.241707 41.5234 -39.8079 -6675.36 -4118.29 2660.5 0.05 
8206 1 -1.54243 -0.602292 6.71795 0 0 0 162.591 278.145 -70272.8 -0.12588 12001.5 -39.8079 -8246.42 12291.5 -8980.09 0.05 
8830 1 -2.19724 -0.0729529 6.73454 0 0 0 291.125 598.303 -69213.9 -0.501331 0.167947 -39.8079 2280.84 -4759.88 -557.186 0.05 
8867 1 -3.36983 -0.00894341 6.736 0 0 0 175.663 -142.955 -68445.3 18884.1 0.000292112 -39.8079 -12620.4 676.409 961.516 0.05 
3838 1 -2.30214 -0.658328 6.78198 0 0 0 342.245 -53.366 -67827.3 -0.653028 55127.1 -39.8079 15741.5 -11453.5 4422.03 0.05 
6813 1 -1.00675 -0.331076 6.77888 0 0 0 6.82129 -37.6128 -68184.5 0 52.8013 -39.8079 -2058.13 18839 -1325.8 0.05 
10564 1 -1.22508 0.248267 6.77447 0 0 0 121.999 251.455 -68383.4 0 -12.5337 -39.8079 7339.68 5379.02 -3964.87 0.05 
8337 1 -3.09243 -0.550323 6.83012 0 0 0 399.868 1113.87 -66451.4 63.3456 3476.69 -39.8079 -1720.62 -405.405 2440.86 0.05 
11387 1 -1.74218 -0.330353 6.80104 0 0 0 147.018 12765.9 -67459.2 -0.183469 52.1491 -39.8079 60006.6 -11354 -10403.1 0.05 
3934 1 -3.40586 -0.654266 6.86099 0 0 0 5463.8 5286.87 -64673 51287.4 48966.9 -39.8079 15707.4 -36673.4 -4753.8 0.05 
725 1 -2.28285 0.131661 6.88321 0 0 0 297.69 344.922 -65555.7 -0.621512 -1.12777 -39.8079 19882.6 26346.3 9850.67 0.05 
8625 1 -2.23117 0.727936 6.85545 0 0 0 106.049 118568 -66987.1 -0.545381 -539545 -39.8079 7015.79 4767.2 -25241.5 0.05 
834 1 -1.1771 0.114497 6.9128 0 0 0 163.744 457.692 -65339.9 0 -0.707645 -39.8079 -44643.6 29238.6 -11075.7 0.05 
14013 1 -3.3028 -0.806855 7.00187 0 0 0 6.35183 1603.03 2.14437 1.74428e+06 8.00906e+06 761816 -771.21 3.17939 3255.53 0.05 
196 1 -3.09803 -0.79672 7.00849 0 0 0 1.72229 2006.35 -169.774 384063 752251 -459263 -10987.5 466.193 2627.17 0.05 
12327 1 -1.10085 -0.809135 7.00054 0 0 0 2.36378 750.32 2.0241 1.03603e+06 1.58784e+07 759190 -5377.28 113.612 3962.54 0.05 
6695 1 -0.781355 -0.810147 7.00083 0 0 0 -0.333314 1071.18 -2.24565 -136665 1.92494e+07 -223471 -1056.05 -6.47182 279.357 0.05 
13221 1 -0.460254 -0.812676 6.99534 0 0 0 2.82026 1032.44 -265.761 8.82483e+06 -1.65771e+08 4.70261e+06 -8502.46 -3365.41 -151.194 0.05 
9943 1 -2.92904 -0.760108 7.00421 0 0 0 133.499 540.391 -563.39 -4.35102e+06 1.31903e+07 -874117 -1357.97 12329.5 -2068.81 0.05 
13855 1 -1.76173 -0.75245 7.00183 0 0 0 37.4578 293.626 -73.9851 -486549 5.40115e+06 1.68796e+06 -3457.48 3652.33 -5438.84 0.05 
12243 1 -0.703018 -0.746359 6.99847 0 0 0 79.2819 321.614 -334.437 0 1.08816e+06 -39.8079 -5970.99 2279.07 -7839.35 0.05 
11028 1 -0.585262 -0.762645 6.99657 0 0 0 -2.12551 142.937 -392.473 561225 2.11321e+06 -989529 -2065.23 -679.013 2022.53 0.05 
5466 1 -0.11559 -0.77739 7.00453 0 0 0 -1.06776 492.185 -133.28 0 4.01423e+06 -39.8079 -10239 -3204.55 -3795.08 0.05 
13426 1 -3.28181 -0.731571 7.00829 0 0 0 290.883 234.897 -3.61829 4.26531e+07 3.33195e+07 -2.37462e+06 -1782.42 4757.78 -1734.06 0.05 
9896 1 -3.06208 -0.70115 7.00704 0 0 0 310.88 77.9813 -235.343 -1.15101e+06 3.97859e+08 -1.40735e+07 4595.97 -937.866 -4267.65 0.05 
11386 1 -2.47748 -0.713614 7.00205 0 0 0 282.922 261.926 -428.236 -1.2743e+06 943078 -127882 379.285 1502.67 -844.724 0.05 
11448 1 -3.34739 -0.658551 7.00316 0 0 0 409.696 134.075 -341.596 3.72164e+07 5.28806e+07 -1.16379e+06 -6400.41 -6874.07 -183.436 0.05 
9043 1 -2.27278 -0.662265 7.0001 0 0 0 337.086 2.26329 -307.924 -758244 1.04075e+07 -617066 -418.706 -2745.46 -146.003 0.05 
13214 1 -1.69783 -0.637628 7.00622 0 0 0 337.638 266.079 -157.987 -702982 587751 -711613 1742.83 2156.35 6011.9 0.05 
13698 1 -0.540706 -0.632493 6.99801 0 0 0 356.351 -24.5025 -236.831 0 26537.1 -39.8079 4820.93 -151.606 707.627 0.05 
3890 1 -3.44944 -0.604507 7.00173 0 0 0 459.535 19.6252 -366.466 -1.99349e+06 1.68139e+07 1.28282e+06 4393.31 12987 1579.53 0.05 
14036 1 -2.36757 -0.62537 6.99895 0 0 0 394.119 174.224 -246.798 -0.77432 21885 -39.8079 -2810.68 10591.6 -5057.98 0.05 
9387 1 -1.88055 -0.629785 6.99801 0 0 0 362.588 410.262 -203.909 -0.24332 24651.4 -39.8079 -10148.1 -3104.27 4983.85 0.05 
13329 1 -1.32365 -0.592014 7.00407 0 0 0 430.604 256.367 -0.00477062 -0.0863879 9283.65 -39.8079 -1941.81 4204.42 -4716.37 0.05 
5912 1 -0.351001 -0.59423 7.00103 0 0 0 423.986 404.22 -70.2555 0 9806.74 -39.8079 -8306.81 7485.19 2955.8 0.05 
11316 1 -2.80808 -0.55534 7.00161 0 0 0 287.696 210.029 -3.93198 -1.62831 3894.74 -39.8079 -3944.5 4585.05 -5793.04 0.05 
11479 1 -2.45468 -0.532412 6.99911 0 0 0 303.83 220.743 -310.059 1.73385e+06 293096 -183046 -3246.24 -6241.47 6461.88 0.05 
3581 1 -1.73828 -0.533992 7.00748 0 0 0 306.571 258.363 -385.235 -0.182062 2421.44 -39.8079 -8983.15 2409.56 2379.19 0.05 
12594 1 -0.810499 -0.546378 7.00461 0 0 0 300.438 -32.3284 -327.402 -918055 510712 -677465 2998.33 6979.03 2199.56 0.05 
10556 1 -0.705209 -0.536341 7.00713 0 0 0 305.903 258.612 -248.924 -408714 -891237 1.32923e+06 2119.64 -1176.19 271.046 0.05 
9307 1 -0.256211 -0.528253 6.99995 0 0 0 289.382 485.803 -288.794 0 2138.26 -39.8079 549.015 3441.22 1945.48 0.05 
12205 1 -3.11749 -0.502607 7.00212 0 0 0 227.266 83.4013 -313.334 -192978 -347755 -326465 904.122 5077.06 4652.18 0.05 
7966 1 -2.01865 -0.515445 7.00018 0 0 0 271.075 398.97 -67.7064 -0.328915 1627.84 -39.8079 -2696.06 2518.34 -512.502 0.05 
10984 1 -1.4999 -0.504999 6.99624 0 0 0 245.231 154.225 -393.512 129662 388156 -1.71604e+06 -3679.13 4219.03 576.254 0.05 
13525 1 -1.36926 -0.486564 7.00847 0 0 0 215.347 323.364 -55.3274 -666345 -586789 -261137 -3521.99 1954.65 4195.26 0.05 
5517 1 -3.35853 -0.433831 6.99995 0 0 0 6873.89 -3.13852 -1.32504 -2.96615e+07 -682900 -611048 -10.6978 -7199.72 2870.37 0.05 
6295 1 -3.2213 -0.468707 7.00463 0 0 0 127.988 325.598 -202 664.792 632.6 -39.8079 -7466.71 412.582 5921.79 0.05 
13644 1 -2.15645 -0.467906 6.99836 0 0 0 111.695 295.465 -176.217 3.25787e+07 7.34955e+08 1.89837e+07 5205.02 364.103 9772.73 0.05 
7434 1 -1.82315 -0.45857 7.00613 0 0 0 25.1612 10190.8 -247.711 -3.28348e+06 -7.40132e+07 -1.86679e+06 901.471 2629.25 -2084.09 0.05 
7418 1 -1.68382 -0.446697 6.99489 0 0 0 0.857051 282.349 -286.097 -0.163761 414.87 -39.8079 -676.399 -2792.98 1280.38 0.05 
3483 1 -0.637664 -0.469666 7.00935 0 0 0 134.089 133.577 -6.12614 408714 894430 -1.32931e+06 -4333.21 1533.59 2249.02 0.05 
3415 1 -0.413695 -0.432022 6.96628 0 0 0 131.042 -110.8 -63656.2 2.28043e+07 -7.11885e+07 8.60902e+08 -770.379 -14792 2908.74 0.05 
6072 1 -3.06715 -0.414674 7.00434 0 0 0 3.9405 64.5274 -100.149 881054 12223.8 79195.8 -390.692 -4200.25 1271.48 0.05 
11339 1 -2.07375 -0.370584 7.00144 0 0 0 5.11785 211.015 -315.998 2.66553e+07 7.23408e+08 -2.07574e+07 9.39351 683.194 1626.7 0.05 
12492 1 -1.42302 -0.399784 7.00238 0 0 0 0.290928 283.972 -444.798 -0.10206 175.369 -39.8079 -5414.35 134.491 4899.75 0.05 
2539 1 -1.16146 -0.406956 7.00888 0 0 0 4.37733 177.255 -4.1372 -2.24999e+06 5.76445e+07 -1.59073e+06 -1692.61 -89.7411 -5580.68 0.05 
6261 1 -0.775931 -0.369053 6.99363 0 0 0 0.618799 44.0652 -308.55 0 101.892 -39.8079 1389.95 3757.27 2231.41 0.05 
11157 1 -0.354925 -0.407982 7.00151 0 0 0 7.56694 306.451 -159.687 -1.94743e+06 -1.00821e+08 -3.76751e+08 -2868.98 -4469.88 4652.3 0.05 
12860 1 -0.239979 -0.403463 7.00327 0 0 0 3.75714 471.621 -1.05678 0 187.327 -39.8079 -3509.92 38.6517 -988.115 0.05 
10862 1 -2.83058 -0.321002 7.0099 0 0 0 228.233 141.223 -257.088 1.48549e+06 9.24171e+07 473016 -404.619 -5211.39 -7440.16 0.05 
3298 1 -2.40008 -0.347916 7.00343 0 0 0 70.1026 87.1011 -210.445 1.81977e+07 -6.21512e+08 -1.11802e+07 -3928.47 5017.42 -5419.6 0.05 
13080 1 -1.62723 -0.323849 7.00378 0 0 0 197.317 305.015 -0.930287 685794 -1.4323e+06 -1075.03 -4271.4 1312.23 -6870.1 0.05 
11927 1 -1.26148 -0.327724 7.00103 0 0 0 188.648 106.639 -3.81846 -2.19849e+06 8.94588e+07 -1.93828e+06 -980.885 1443.75 -4282.92 0.05 
10082 1 -0.0747131 -0.352635 7.00084 0 0 0 -0.863411 54756.7 -103.975 -1.87084e+07 -4.27532e+08 -5.549e+06 -48227.8 -2274.58 -30070.6 0.05 
11626 1 -3.32592 -0.2926 7.00636 0 0 0 301.627 -46.7923 -265.527 -5.24063e+06 -1.63239e+08 -1.82124e+06 4882.93 -2912.51 -4903.6 0.05 
3086 1 -3.06118 -0.308679 7.0098 0 0 0 258.047 76.6888 -347.064 36.5775 35.9334 -39.8079 -6271.32 5494.68 -4723.38 0.05 
246 1 -1.97281 -0.304131 7.00758 0 0 0 258.794 106.267 -39.6757 -7.16629e+06 -8.88113e+07 -750324 -1941.33 2965.21 -5746.76 0.05 
13413 1 -0.749829 -0.269611 7.00738 0 0 0 335.315 54.1967 -74.4859 -244635 1.1112e+06 17007.7 5041.72 1413.35 -110.651 0.05 
13443 1 -2.6199 -0.23118 7.00097 0 0 0 314.993 226.46 -303.815 2.00363e+06 -1.53942e+08 -1.04862e+06 -7339.7 -1753 3158.53 0.05 
4622 1 -1.81765 -0.214879 7.01009 0 0 0 246.191 5.65833 -4.21585 -0.213516 6.79433 -39.8079 703.339 918.293 5645.47 0.05 
11055 1 -1.58267 -0.222512 7.00771 0 0 0 281.931 252.745 -129.741 8.86158e+06 6.45699e+08 2.25515e+07 -7694.24 5219.39 3475.09 0.05 
9031 1 -1.07192 -0.252853 7.00494 0 0 0 334.684 289.088 -1.6776 -90899.3 281430 -568375 -2042.17 1864.67 5460.99 0.05 
8291 1 -0.433778 -0.223239 7.00725 0 0 0 150.149 -349.257 -239.671 5.04177e+08 5.73668e+06 -14899.7 1096.58 -5341.71 2053.67 0.05 
10863 1 -3.45937 -0.176318 6.99888 0 0 0 4374.36 -11.9081 -474.44 -5.04249e+07 -2.46116e+06 796350 -6463.12 -1109.85 6014.55 0.05 
11894 1 -3.17208 -0.176093 7.00149 0 0 0 97.5506 67.5343 -6.88567 2.23767e+06 1.01929e+08 -2.44185e+06 -860.701 548.186 2523.39 0.05 
12122 1 -0.561424 -0.189627 6.99274 0 0 0 174.222 -278.64 -438.256 0 4.15512 -39.8079 1537.8 4115.01 1475.05 0.05 
13658 1 -0.159201 -0.16782 6.99471 0 0 0 7.95394 82.6763 -337.939 6.67927e+06 1.96031e+08 2.76232e+06 1866.18 -2285.19 -5152.87 0.05 
12127 1 -2.82773 -0.110518 7.00463 0 0 0 0.65822 -16.5174 -176.056 -1.45126 0.630121 -39.8079 -349.767 7175.76 -685.997 0.05 
7242 1 -1.01373 -0.155198 7.00169 0 0 0 2.10499 301.785 -440.675 0 1.99207 -39.8079 -4537.36 4110.27 -3968.13 0.05 
6839 1 -2.93485 -0.0566442 7.00058 0 0 0 91.9205 286.016 -1.03188 2.46975 0.0768091 -39.8079 -1689.84 3566.96 -6522.54 0.05 
8449 1 -2.52294 -0.060715 7.00775 0 0 0 162.811 -4.52052 -328.312 -1.16822 0.095086 -39.8079 -1837.05 8846.9 -3745.01 0.05 
9952 1 -1.27391 -0.0748946 7.00528 0 0 0 84.0763 1.56742 -1.39541 -0.0796709 0.182293 -39.8079 475.418 3136.13 -2102.83 0.05 
13065 1 -0.445998 -0.0750327 7.00081 0 0 0 60.1186 -390.178 -1.95424 0 0.183345 -39.8079 5055.88 2363.08 -659.839 0.05 
11753 1 -2.68137 -0.00644821 7.00266 0 0 0 160.807 -210.022 -134.014 2.44859e+06 152659 -1.14879e+06 7518.02 1815.31 3120.82 0.05 
13038 1 -2.38129 -0.0447809 7.00672 0 0 0 161.993 -159.225 -291.7 -1.05157e+06 58134.9 221332 8611.7 7017.35 2013.6 0.05 
9721 1 -2.21113 -0.0457716 6.99957 0 0 0 124.637 -61.2604 -296.801 -612076 -8.51389e+07 1.88392e+06 7047.56 6673.85 354.38 0.05 
11177 1 -1.65659 -0.0135197 6.99854 0 0 0 137.701 283.272 -269.436 -1.83235e+06 -913253 -510332 -7242.59 12381.4 -1315.12 0.05 
13866 1 -0.818965 -0.0106011 7.01021 0 0 0 182.547 -34.6982 -117.146 0 0.000486688 -39.8079 6114.23 3039.33 2960.67 0.05 
10773 1 -0.27169 -0.038517 6.99914 0 0 0 125.834 285.341 -136.866 0 0.0236963 -39.8079 1343.81 7969.96 -5896.34 0.05 
9438 1 -3.44931 0.0211518 7.00199 0 0 0 4561.04 -62.0443 -170.615 -2.47812e+07 -302687 -2.82225e+06 -1075.86 -7635.95 -2630.97 0.05 
1157 1 -1.05146 0.0244961 7.00781 0 0 0 115.395 327.817 -0.866421 0 -0.00603682 -39.8079 -1803.03 4161.78 4188.08 0.05 
2032 1 -0.422465 0.0459202 6.99615 0 0 0 1.15672 -302.125 -333.327 0 -0.0404307 -39.8079 5672.86 1259.79 -199.496 0.05 
5587 1 -2.27394 0.0571688 7.00687 0 0 0 52.0783 -180.287 -263.634 -0.607543 -0.079015 -39.8079 -34.4933 5173.72 -2622.53 0.05 
4228 1 -2.03657 0.0874724 7.00414 0 0 0 120.589 -3.98603 -2.036 -1.09547e+07 4.81894e+08 -1.42344e+06 542.302 4514.04 515.487 0.05 
5683 1 -1.90214 0.0558606 7.00452 0 0 0 29.3878 -0.137358 -1.09547 8.43718e+06 2.53257e+08 758488 319.375 1063.24 -599.048 0.05 
9104 1 -0.712872 0.0647969 7.00753 0 0 0 89.6945 103.73 -192.917 -2.27665e+06 9.52061e+07 -1.17797e+06 3601.04 8511.58 -3712.57 0.05 
11421 1 -3.45256 0.155024 7.0015 0 0 0 4510.79 66.347 -183.361 -5.99789e+07 70127.1 -351032 -1620.61 -4118.49 1704.54 0.05 
1592 1 -1.4365 0.120588 7.00426 0 0 0 178.097 -158.883 -226.733 1.17667e+06 -1.14594e+08 -1.00437e+06 1701.47 52.7273 -14.0242 0.05 