ITEM: TIMESTEP
200000
ITEM: NUMBER OF ATOMS
14052
ITEM: BOX BOUNDS ff pp ff
-3.75 3.75
-1 1
0 10
ITEM: ATOMS id type x y z ix iy iz vx vy vz fx fy fz omegax omegay omegaz radius 
9412 1 -2.15415 -0.351781 6.42654 0 0 0 1.89465 14.6511 -171840 -0.451347 75.462 -39.8079 -9278.38 13846.1 5701.27 0.05 
13821 1 -1.59505 -0.511655 6.43522 0 0 0 0.275184 105.574 -171857 -0.138558 1503.46 -39.8079 4511.3 3783.37 -2558.63 0.05 
13215 1 -0.227484 -0.109076 6.47687 0 0 0 -0.415757 615.338 -169069 0 0.603647 -39.8079 56.5582 22216.6 -6775.57 0.05 
10206 1 -3.22684 0.654964 6.44984 0 0 0 223.624 -338.288 -170107 741.263 -49970 -39.8079 5136.14 -10974 -8981.36 0.05 
12795 1 -2.99042 -0.318118 6.4863 0 0 0 496.068 -76.1836 -168732 9.75669 42.2605 -39.8079 -10403.9 3184.62 3882.04 0.05 
7183 1 -0.750521 -0.36405 6.52261 0 0 0 -0.775491 310.248 -166448 0 93.3768 -39.8079 -12783.2 -9045.73 -4366.71 0.05 
4371 1 -1.71274 0.399387 6.5123 0 0 0 0.978137 -152.085 -167037 -0.17318 -174.127 -39.8079 17513.9 -2599.57 17.1685 0.05 
11397 1 -0.430419 0.753877 6.51772 0 0 0 0.381765 57.6376 -166689 0 -1.47037e+06 -39.8079 9019.46 16450.5 -5556.43 0.05 
12202 1 -1.70026 -0.493968 6.56187 0 0 0 179.822 82.4985 -164076 -0.169035 1044.77 -39.8079 9591.61 11592.2 3632.57 0.05 
10576 1 -3.27236 0.236923 6.57147 0 0 0 288.576 -171.664 -164748 1884.1 -10.2169 -39.8079 -34639.3 13625.1 1203.32 0.05 
13017 1 -1.4873 -0.799418 6.58582 0 0 0 0.909249 553.503 -163153 -0.114109 1.13813e+07 -39.8079 -24189.3 -7438.98 3021.17 0.05 
8448 1 -0.483481 -0.80238 6.64599 0 0 0 0.508839 314.966 -159922 0 1.32069e+07 -39.8079 -5624.8 -12451.1 599.922 0.05 
11202 1 -0.851149 0.248682 6.66411 0 0 0 123.447 238.648 -159224 0 -12.627 -39.8079 -9912.06 27218.7 2176.75 0.05 
13635 1 -1.11898 0.678337 6.65489 0 0 0 1.12983 -248.646 -159669 0 -100919 -39.8079 23219.4 1106.72 3265.97 0.05 
11049 1 -2.65013 -0.218431 6.68704 0 0 0 133.741 -5.57851 -157302 -1.5868 7.26417 -39.8079 18.8217 -15907.8 3665.63 0.05 
9405 1 -1.49535 0.136417 6.69719 0 0 0 150.868 182.383 -157454 9.67752e+06 -9.55278e+08 3.8989e+07 -8193.36 -4231.23 -2793.75 0.05 
11924 1 -1.4842 0.119436 6.73106 0 0 0 1.24944 -132824 -156140 -9.67752e+06 9.55278e+08 -3.8989e+07 -2556.94 -4092.1 8906.26 0.05 
12319 1 -0.0529315 0.160192 6.7121 0 0 0 -0.207636 85.6351 -158386 0 -2.22975 -39.8079 -4133.99 98548.8 -3973.59 0.05 
13254 1 -1.96442 0.528984 6.72652 0 0 0 -0.150736 27.6477 -155765 -0.291483 -2172.26 -39.8079 -7367.64 -23625.4 3565.41 0.05 
12761 1 -0.541568 0.53361 6.72053 0 0 0 0.273628 -327.085 -156298 0 -2401.38 -39.8079 16792.2 -12762.6 -880.602 0.05 
12566 1 -1.8994 0.276099 6.78325 0 0 0 77.5525 -317.074 -153211 -0.253235 -20.468 -39.8079 -16700 2013.15 5382.68 0.05 
11242 1 -1.16453 0.580673 6.75333 0 0 0 -0.0422323 -200.697 -155175 0 -7042.62 -39.8079 11388 -13157.8 4496.39 0.05 
12900 1 -3.49122 0.806429 6.76966 0 0 0 308.366 -486.639 -151839 890361 -1.6245e+07 -39.8079 -23920.6 40304.7 -3110.64 0.05 
8681 1 -0.510975 0.829097 6.7702 0 0 0 -0.925695 -639.975 -153783 0 -5.64502e+07 -39.8079 -50699.1 11980.1 1235.89 0.05 
10609 1 -1.77686 -0.319648 6.88924 0 0 0 1.51252 -165.219 -147349 -0.19658 43.3857 -39.8079 27672.1 -1753.56 3676.46 0.05 
12455 1 -2.35565 -0.30992 6.87031 0 0 0 1.67213 168.304 -148866 -0.750458 36.7084 -39.8079 7925.15 12355.5 -4376.61 0.05 
4032 1 -1.64335 0.241234 6.86847 0 0 0 0.993796 310.862 -148998 -0.151621 -11.0463 -39.8079 9126.22 20299.1 3259.07 0.05 
7677 1 -1.36622 0.538123 6.87614 0 0 0 -0.253296 -136.754 -149126 -0.0927058 -2650.5 -39.8079 -7104.88 7447.28 662.835 0.05 
11415 1 -0.879627 0.832189 6.88266 0 0 0 238.893 -776.567 -148344 0 -6.77562e+07 -39.8079 -96357.5 -10605.3 1405.99 0.05 
8255 1 -3.29488 -0.429315 6.9053 0 0 0 175.968 68.4646 -146740 3076.94 299.908 -39.8079 -29492.7 -11449 4606.84 0.05 
14013 1 -3.30285 -0.84181 7.00185 0 0 0 0.0307901 1332.13 -0.0987487 3680.43 1.22283e+08 -39.8079 -957.997 4.39134 3796.95 0.05 
12327 1 -1.10086 -0.824363 7.00053 0 0 0 0.0971842 565.003 -1.42638 -41056.3 6.39012e+07 618095 -4747.29 -22.1122 4512.68 0.05 
6695 1 -0.781351 -0.832099 7.00087 0 0 0 0.0781568 848.249 -0.798304 0 6.73946e+07 -39.8079 -1135.51 -2.30872 278.721 0.05 
13221 1 -0.46028 -0.834924 7.00155 0 0 0 0.401183 828.247 -274.511 267384 7.53776e+07 1.59174e+06 -9907.94 -3135.96 -478.632 0.05 
13855 1 -1.76261 -0.757501 7.00277 0 0 0 28.9634 254.837 -0.276172 -2.74087e+06 5.78099e+07 426174 -1486.24 79.707 -4944.21 0.05 
12243 1 -0.704743 -0.752956 7.00116 0 0 0 73.0282 299.471 0.098072 0 1.41644e+06 -39.8079 -5580.98 336.284 -7901.36 0.05 
11028 1 -0.585247 -0.768107 7.00049 0 0 0 -1.13873 230.081 -0.6214 1.40169e+06 4.43344e+07 1.66934e+06 -3850.78 -6.39177 4940.59 0.05 
5466 1 -0.11556 -0.78585 7.00645 0 0 0 -0.314561 359.953 -1.02512 0 5.91421e+06 -39.8079 -6037.33 -0.618337 -1906.12 0.05 
13426 1 -3.28732 -0.735776 7.00828 0 0 0 232.603 166.845 1.12891 2603.55 722910 -39.8079 -1244.43 3585.95 138.524 0.05 
11386 1 -2.48401 -0.719604 7.00821 0 0 0 281.629 260.957 -97.1975 292401 -1.0338e+06 -8.49029e+08 -645.775 5558.76 -810.789 0.05 
7434 1 -1.8237 -0.69761 7.00845 0 0 0 11.947 10923.3 -3.42868 6.73508e+06 -1.80355e+08 -3.03126e+06 2632.63 557.239 -813.862 0.05 
1680 1 -1.26735 -0.691962 7.00983 0 0 0 -0.431064 -79256.6 -2.7728 4.05512e+07 1.06682e+09 3.60838e+07 -51372 75.9943 -5540.28 0.05 
11448 1 -3.35543 -0.659184 7.00548 0 0 0 340.201 0.385121 -0.21995 12996 56530.6 -39.8079 0.00307506 769.836 372.976 0.05 
9043 1 -2.28053 -0.662279 7.00118 0 0 0 336.629 0.434271 -0.206767 -0.617836 61942.9 -39.8079 -0.656762 1489.2 -132.249 0.05 
9387 1 -1.88894 -0.635892 7.00195 0 0 0 375.181 101.314 -3.11118 -5.87704e+06 1.33981e+08 -1.22929e+06 -2761.96 2349.05 94.5649 0.05 
13214 1 -1.70563 -0.642593 7.00819 0 0 0 340.558 265.759 -0.248713 -0.170802 35098.1 -39.8079 -3942 605.583 6145.25 0.05 
12790 1 -0.55777 -0.661947 7.01031 0 0 0 152468 -37.2125 -3.44728 -2.85812e+09 7.17025e+07 1.0293e+07 -669.111 -93756.6 -7246.04 0.05 
13698 1 -0.548948 -0.636392 7.00082 0 0 0 193.253 50.545 -1.74414 1.13423e+09 9.98533e+07 -1.15445e+07 -784.569 1639.22 -470.459 0.05 
3890 1 -3.4597 -0.604568 7.00435 0 0 0 443.922 0.0893458 -0.022199 281840 12714.6 -39.8079 1.2815 3947.3 792.38 0.05 
14036 1 -2.37664 -0.629386 7.00114 0 0 0 394.682 174.376 -0.0344863 -0.793023 24386.6 -39.8079 -2710.41 2986.9 -5060.3 0.05 
13329 1 -1.33356 -0.596277 7.00407 0 0 0 431.973 46.1186 0.132145 -0.0878097 10319 -39.8079 -1454.34 4203.75 -11198.5 0.05 
5912 1 -0.360475 -0.602556 7.00152 0 0 0 163.568 236.189 -0.65739 9.41853e+08 2.74153e+07 1.75348e+07 -2469.32 2777.16 1460.86 0.05 
11316 1 -2.81474 -0.558874 7.00169 0 0 0 291.794 0.0536169 -0.177797 -1.5775 4222.12 -39.8079 -1.05983 4768.67 -1145.86 0.05 
11479 1 -2.46159 -0.537595 7.00581 0 0 0 299.846 295.085 -0.616738 -0.993494 2620 -39.8079 -3807.54 4303.05 3977.56 0.05 
12594 1 -0.817446 -0.550849 7.0068 0 0 0 303.89 279.527 -0.794481 0 3518.12 -39.8079 -177.296 4239.65 4811.8 0.05 
10556 1 -0.7123 -0.54305 7.00977 0 0 0 309.677 352.604 -0.561791 0 2955.09 -39.8079 -5179.17 3843.68 -3440.37 0.05 
9307 1 -0.262774 -0.538338 7.00187 0 0 0 44.0275 323.649 -1.52317 1.04731e+09 1.27415e+08 -3.36641e+07 -2985.45 733.541 -3414.53 0.05 
6295 1 -3.22424 -0.473909 7.0093 0 0 0 130.665 -0.0991192 -176.438 8.40361e+06 4.3351e+06 -6.25035e+08 -4239.32 -522.176 4964.16 0.05 
12205 1 -3.12273 -0.502857 7.00452 0 0 0 228.109 -113.012 -47.4576 767708 6.41719e+06 -6.09847e+08 -1616.73 2744.6 790.072 0.05 
7966 1 -2.02489 -0.522165 7.00055 0 0 0 271.21 261.38 -1.14485 -0.333588 1876.76 -39.8079 -5905.43 4623.78 3846.23 0.05 
10984 1 -1.50557 -0.507476 7.00415 0 0 0 247.571 161.558 -93.2087 337286 141892 -1.06552e+06 -3797.45 -301.835 488.449 0.05 
13525 1 -1.37428 -0.49404 7.00957 0 0 0 222.077 326.742 -0.584616 -0.0939669 1046.29 -39.8079 -1859.67 2852.5 4022.16 0.05 
5517 1 -3.51937 -0.433743 7 0 0 0 7136.4 -6.65542 -3.2158 -4.57178e+07 565256 242073 -2.43239 -2034.28 3374.38 0.05 
13644 1 -2.15899 -0.470241 7.00202 0 0 0 110.74 295.483 -12.0012 5.75016e+06 2.46313e+07 -6.07774e+08 -1465.69 1711.9 8397.58 0.05 
7418 1 -1.68384 -0.451247 7.00105 0 0 0 0.213807 284.169 -265.532 -0.163766 452.198 -39.8079 328.221 -2172.79 1207.14 0.05 
3483 1 -0.64071 -0.471793 7.0094 0 0 0 131.922 -45.3523 -1.27369 880177 1.1597e+08 793714 2368.43 1740.81 3240.9 0.05 
12363 1 -3.15442 -0.417011 6.99649 0 0 0 355.1 240.724 -142272 8.89618e+06 -1.13348e+07 2.49731e+09 10209.2 -2344.92 5504.38 0.05 
6072 1 -3.06718 -0.414992 7.00666 0 0 0 1.54019 -74.1675 -61.9322 -5.24993e+06 2.43162e+06 -6.70918e+08 -2824.67 -2655.64 707.776 0.05 
11339 1 -2.07383 -0.375915 7.00632 0 0 0 2.34727 428.744 -117.104 -0.373202 114.9 -39.8079 -6443.07 -4632.08 -1266.77 0.05 
12492 1 -1.42301 -0.406318 7.00997 0 0 0 -0.63705 285.086 -0.341037 -0.102059 197.196 -39.8079 -1611.93 4.32213 4928.68 0.05 
2539 1 -1.1615 -0.407865 7.0089 0 0 0 0 0.000999403 -0.0001962 0 202.774 -39.8079 0 0 0 0.05 
6261 1 -0.775942 -0.373213 7.00074 0 0 0 0.273587 338.323 -309.163 0 109.584 -39.8079 -2406.91 3744.96 -451.769 0.05 
11157 1 -0.354931 -0.414071 7.00165 0 0 0 -0.363799 253.588 -0.029728 0 226.87 -39.8079 -2619.93 -3.18921 5536.32 0.05 
12860 1 -0.240008 -0.410734 7.00328 0 0 0 0.0777527 171.864 0.0340917 0 213.558 -39.8079 -1701.5 2.05304 -5876.28 0.05 
3298 1 -2.40158 -0.353569 7.0082 0 0 0 65.2208 251.121 -207.485 -0.84707 77.8355 -39.8079 -7407.33 4969.75 -8391.18 0.05 
13080 1 -1.63049 -0.32726 7.0038 0 0 0 1.74293 300.002 -1.21415 3.35844e+07 -9.11967e+08 -2.39236e+07 -6077.49 3.60497 -230.289 0.05 
11927 1 -1.26368 -0.324216 7.00107 0 0 0 0.226222 -336.624 -0.503202 -0.0783716 46.9281 -39.8079 1481.56 0.0700482 588.26 0.05 
246 1 -1.97832 -0.309111 7.00776 0 0 0 2.58848 227.924 -0.398449 -0.300559 36.2013 -39.8079 -4403.37 41.5921 -4668.23 0.05 
13413 1 -0.751379 -0.272848 7.00906 0 0 0 3.05313 246.566 -73.9602 -3.01031e+07 8.19725e+08 1.15504e+07 3814.17 29.4065 -2580.55 0.05 
13443 1 -2.62711 -0.237583 7.00794 0 0 0 313.471 235.226 -303.185 -1.51047 10.3402 -39.8079 -8922.86 -1780.99 4818.83 0.05 
11055 1 -1.5872 -0.22567 7.00949 0 0 0 0.029935 245.704 -0.216172 -0.13657 8.31298 -39.8079 -5405.49 -1.27591 3018.14 0.05 
9031 1 -1.07492 -0.256426 7.00496 0 0 0 -0.173324 288.445 -0.0675213 0 14.4921 -39.8079 -2013.9 -0.121055 4644.63 0.05 
10082 1 -0.0747445 -0.24283 7.00178 0 0 0 1.18714 -58111.5 -1.65152 8.59533e+06 8.42202e+08 -6.74127e+06 -38427.5 -11.1691 -23355.6 0.05 
10863 1 -3.56236 -0.17618 7.00655 0 0 0 4554.84 -1.72743 -1.04692 -4.66458e+06 -1.3748e+06 -1.03486e+06 22.2853 -26.1616 4574.36 0.05 
11894 1 -3.17429 -0.176293 7.00157 0 0 0 96.1599 1.04446 -0.581945 -30749.9 1.56274e+06 -832461 -22.4774 749.387 4091.55 0.05 
4622 1 -1.82237 -0.208859 7.01014 0 0 0 -0.19448 -334.907 -0.538662 -0.215589 6.05926 -39.8079 1599.97 0.0975273 -596.71 0.05 
7242 1 -1.01376 -0.158475 7.00814 0 0 0 -2.18304 304.896 -109.757 1.16464e+07 -7.24339e+06 -8.34594e+08 299.528 3189.08 -3972.13 0.05 
7639 1 -0.954655 -0.194485 6.9962 0 0 0 1.42213 164.155 -141987 -1.24554e+07 3.99978e+06 1.21076e+09 14142.6 19513.2 1082.92 0.05 
12122 1 -0.561729 -0.185339 7.00189 0 0 0 0 1.87753e-05 -0.0001962 0 3.80942 -39.8079 0 0 0 0.05 
13658 1 -0.159217 -0.165618 7.00053 0 0 0 -0.0761403 -113.649 -100.581 0 2.51359 -39.8079 -2639.43 -3401.52 -4764 0.05 
12127 1 -2.82774 -0.110132 7.00675 0 0 0 -7.15244e-06 3.07034e-06 -0.0001962 -1.45119 0.622957 -39.8079 0 0 0 0.05 
6839 1 -2.93696 -0.0591944 7.0006 0 0 0 90.5351 278.208 -0.286074 2.64212 0.0879425 -39.8079 -1584.08 3571.92 -6965.08 0.05 
9952 1 -1.27571 -0.0700213 7.0053 0 0 0 -0.277235 -336.139 -0.246259 -0.0799024 0.14782 -39.8079 792.186 0.398672 -1303.01 0.05 
13065 1 -0.446808 -0.0701493 7.00084 0 0 0 0 7.32698e-07 -0.0001962 0 0.148661 -39.8079 0 0 0 0.05 
11753 1 -2.68497 -0.00861281 7.00569 0 0 0 154.722 -1.86572 -6.2954 1.93298e+07 -1.73773e+08 -5.60555e+08 207.835 5459.05 1195.37 0.05 
13781 1 -2.52506 -0.00099696 6.96308 0 0 0 31.3232 2.47232 -144609 1.32242e+06 -3.31954e+07 7.93814e+08 6352.86 -18057.6 -660.729 0.05 
13038 1 -2.38502 -0.0470971 7.01027 0 0 0 160.982 206.828 -0.561288 -0.810754 0.0436721 -39.8079 -2305.07 5521.76 -8074.61 0.05 
9721 1 -2.21396 -0.0454353 7.00071 0 0 0 122.633 106.586 -0.219264 -0.522491 0.0391446 -39.8079 -727.851 4821.91 3058.83 0.05 
11177 1 -1.65984 -0.0166166 7.00187 0 0 0 143.608 -18.4724 -0.470524 -0.156429 0.00187759 -39.8079 887.624 5539.25 74.6694 0.05 
12444 1 -0.778915 -0.0186868 7.0084 0 0 0 4.23221 -139628 -111.854 -3.03274e+07 1.79707e+09 -2.58012e+07 28064.3 -4023.23 -12807.1 0.05 
10773 1 -0.273208 -0.0442006 7.00229 0 0 0 0.335501 276.649 -136.982 0 0.0359955 -39.8079 1679.57 3050.63 -4799.96 0.05 
9438 1 -3.55791 0.0218695 7.00377 0 0 0 4836.75 4.22853 2.35067 1.6789e+07 1.15067e+06 -369833 -121.362 2332.32 -844.127 0.05 
1157 1 -1.05369 0.0218311 7.00783 0 0 0 -0.626542 289.517 -0.685124 -1.18672e+07 -8.56542e+08 -1.33839e+07 -1600.17 0.614126 1685.25 0.05 
2032 1 -0.422475 0.0502767 7.00115 0 0 0 0 -2.62742e-07 -0.0001962 0 -0.053309 -39.8079 0 0 0 0.05 
5587 1 -2.27508 0.0582498 7.00885 0 0 0 49.1471 -0.000492693 5.73263e-06 -0.609308 -0.0836974 -39.8079 0.0239871 1769.72 -1519.39 0.05 
4228 1 -2.03932 0.0880203 7.00419 0 0 0 120.187 85.6498 -0.141657 -0.344712 -0.302975 -39.8079 -568.919 4563.63 -5773.72 0.05 
5683 1 -1.90275 0.0582629 7.00453 0 0 0 24.249 -107.826 0.00143488 -0.255052 -0.0837552 -39.8079 833.517 926.83 -5260.36 0.05 
11421 1 -3.55908 0.155119 7.00339 0 0 0 4742.16 1.38855 2.0709 -1.3742e+07 975283 -462180 -52.0335 2753.98 823.517 0.05 
1592 1 -1.44054 0.11668 7.00946 0 0 0 175.767 236.509 -226.107 -0.105179 -0.75312 -39.8079 -3519.82 91.4354 5863.85 0.05 
3720 1 -0.322287 0.1122 7.00095 0 0 0 -0.986809 85.093 -1.33246 -6.56555e+06 3.61461e+08 -1.03564e+07 -881.121 -2.42443 496.272 0.05 
11518 1 -3.2494 0.18617 7.00445 0 0 0 0.470017 -0.242334 -231.332 1166.49 -3.8744 -39.8079 -5741.44 -2678.64 -8.76268 0.05 
8568 1 -3.02182 0.190655 7.00797 0 0 0 1.26801 -192.696 -0.129773 17.957 -4.2419 -39.8079 -835.018 12.1587 1442.62 0.05 
11832 1 -2.59856 0.185935 7.00213 0 0 0 -6.96798e-06 -1.90044e-05 -0.0001962 -1.41377 -3.85589 -39.8079 0 0 0 0.05 
11037 1 -1.58339 0.16867 7.00291 0 0 0 74.2255 233.497 -118.877 -0.135617 -2.68587 -39.8079 -6981.03 3785.92 4127.88 0.05 
5472 1 -1.06037 0.185037 7.00206 0 0 0 -0.508623 2.30196 -0.512593 7.20572e+06 -4.68891e+08 8.26751e+06 -51.1202 0.47248 17.549 0.05 
8636 1 -0.449457 0.160446 7.00617 0 0 0 0.585093 -116.437 -0.0900731 -7.15354e+06 -1.68554e+08 790140 1043.73 1.69919 4588.02 0.05 
13760 1 -3.59243 0.254954 7.00093 0 0 0 1324.93 -0.110915 0.214061 1.21525e+08 -192772 5148.62 -1.34107 2154.12 766.271 0.05 
10467 1 -3.39086 0.225085 7.00623 0 0 0 0.164795 -4.05305e-05 -0.0001962 33435 -8.22345 -39.8079 0 0 0 0.05 
3741 1 -1.25447 0.226894 7.0102 0 0 0 0.444528 -331.801 -0.221657 -0.0772231 -8.50325 -39.8079 -7.20369 -1.50365 1997.48 0.05 
6836 1 -0.73704 0.275872 7.00358 0 0 0 0.329174 -200.019 -0.189014 0 -20.3874 -39.8079 1863.39 -3.21475 6122.28 0.05 
5181 1 -3.31435 0.347394 7.00143 0 0 0 338.425 -112.761 -2.78192 -4.57164e+06 -2.04954e+08 -8.06161e+06 1389.09 5776.38 -6526.02 0.05 
5457 1 -2.83178 0.322904 7.00513 0 0 0 219.047 0.621255 0.199364 -1.40372 -45.8817 -39.8079 -7.83823 5332.69 -4936.98 0.05 
9264 1 -2.58917 0.319094 7.01012 0 0 0 106.125 -0.831346 -2.19118 2.95903e+08 -1.24008e+06 -2.52235e+06 4.7265 2284.72 -2671.93 0.05 
7879 1 -2.47552 0.352148 7.01011 0 0 0 199.681 111.236 -2.60383 4.39723e+06 -1.79144e+08 5.3884e+06 1223.88 -641.528 -4683.99 0.05 
13743 1 -2.14003 0.356246 7.00112 0 0 0 17.6804 19.5323 -0.228873 3.63949e+08 -1.6944e+07 6.67761e+06 1667.46 29.7304 -347.657 0.05 
12717 1 -1.96599 0.367211 7.00125 0 0 0 0.0745001 -113.85 -0.0594923 -2.23466e+06 -8.09608e+07 1.95215e+06 2642.17 2.20436 3978.66 0.05 
5648 1 -1.35464 0.329115 7.00359 0 0 0 0.00438374 176.784 -1.02232 -2.46105e+06 -1.22356e+08 -7.03935e+06 -1953.95 -16.0022 -8705.4 0.05 
13166 1 -2.20132 0.417315 7.00305 0 0 0 72246.9 306.656 0.430674 -1.09062e+09 1.083e+07 7.86999e+06 251.709 -50285.2 -15395.5 0.05 
11062 1 -0.77139 0.403793 7.00206 0 0 0 0.22249 -290.814 -0.61953 0 -188.441 -39.8079 2854.09 -2.63378 3931.26 0.05 
12140 1 -0.470411 0.382204 7.00346 0 0 0 -0.398035 -436.984 -0.531742 5.01572e+06 -1.2599e+08 2.75803e+06 5103.32 -4.75195 603.205 0.05 
4450 1 -3.09827 0.435473 7.00508 0 0 0 317.67 -118.311 -0.276141 857350 434321 -39605.1 -1698.55 -176.503 -574.717 0.05 
13401 1 -1.49074 0.44651 7.00714 0 0 0 -0.0579915 -11.8239 -138.689 -0.114801 -413.403 -39.8079 3753.48 445.225 -4183.72 0.05 
13997 1 -1.31737 0.437498 7.0015 0 0 0 2.4831 -266.656 -1.42384 -1.16277e+07 2.50466e+08 4.82536e+06 3815.21 17.7133 -7313.77 0.05 
12657 1 -1.2116 0.458835 7.00115 0 0 0 0.149443 -231.992 -0.11231 0 -522.693 -39.8079 996.856 -2.47231 6286.94 0.05 
13330 1 -0.0551606 0.429275 7.00397 0 0 0 0.727938 -322.146 -0.203222 0 -299.685 -39.8079 -283.101 -2.77456 2996.53 0.05 
12618 1 -3.58775 0.484866 7.00063 0 0 0 1125.84 -184.291 -1.35593 9.02066e+07 841091 -543598 6144.42 670.659 1753.12 0.05 
2817 1 -2.63624 0.483671 7.00439 0 0 0 185.563 -233.512 -1.24096 -1.54106 -849.463 -39.8079 5470.18 -160.668 9756.99 0.05 
10857 1 -2.38603 0.479741 7.00861 0 0 0 208.251 69.2151 -0.0692057 -0.812917 -785.66 -39.8079 1172.22 -514.525 4611.46 0.05 
1235 1 -2.11836 0.525732 7.00693 0 0 0 2.62973 -276.366 -3.0094 -2.20398e+07 -8.81305e+08 2.02925e+07 4118.56 -5.47415 -1646.92 0.05 
13078 1 -1.40171 0.509334 7.0038 0 0 0 -0.731096 -126.245 -264.306 -8.22375e+06 4.05647e+08 -4.14393e+06 1027.34 4510.17 -2370.34 0.05 
12409 1 -0.163606 0.481851 7.00725 0 0 0 0.00492049 -89.4895 -0.0195934 0 -819.25 -39.8079 -239.633 0.847826 -3950.1 0.05 
10883 1 -3.17127 0.533023 7.00859 0 0 0 0.871064 -35.7786 -0.48527 2.00596e+06 -1.00323e+08 -1.71818e+06 235.375 10.3731 -342.651 0.05 
3048 1 -3.04699 0.571048 7.00356 0 0 0 1.50765 -180.218 -0.252771 28.4131 -5601.62 -39.8079 -1506.58 23.152 -747.033 0.05 
3352 1 -1.5155 0.553506 7.00714 0 0 0 -3.98062 51.8634 -1.99217 1.73194e+06 -1.22709e+08 982985 -1870.93 -38.4937 -7139.81 0.05 
13715 1 -1.90686 0.600054 7.00452 0 0 0 -2.72167 -85.6787 -73.5418 -742166 65485.3 -71245.1 3303.18 -2180.16 -3666.38 0.05 
13544 1 -1.42288 0.609467 7.00739 0 0 0 0.640185 -321.383 -76.471 -2.01281e+06 -6.71901e+07 2.3392e+06 9646.41 2173.09 1305.67 0.05 
13720 1 -3.03638 0.677914 7.00919 0 0 0 319.906 -197.447 -0.495877 23.469 -99597 -39.8079 -2480.01 6102.85 -5891.86 0.05 
10007 1 -2.65569 0.639963 7.00419 0 0 0 419.229 -315.953 -2.4292 -1.60471 -32609.2 -39.8079 6108.15 5255.52 -8261.48 0.05 
11300 1 -2.10413 0.642443 7.00818 0 0 0 171.247 -437.751 -1.05203 -0.4006 -34950.5 -39.8079 5493.62 4361.95 -5156.32 0.05 
8166 1 -1.99964 0.639375 7.0005 0 0 0 27.3767 -218.829 -1.01319 3.90924e+08 -7.22186e+06 -9.3999e+06 5035.65 794.836 3220.78 0.05 
13670 1 -1.26 0.667664 7.00023 0 0 0 0.224886 -333.186 -0.406495 -0.0779098 -72768 -39.8079 1502.69 -0.408066 1134.51 0.05 
5082 1 -0.782969 0.650179 7.00554 0 0 0 -0.0708252 -313.737 -0.530678 0 -43524.3 -39.8079 2508.34 0.396106 2485.1 0.05 
12413 1 -0.277157 0.637255 7.00322 0 0 0 -0.00471122 -44.71 -0.016772 -13907 -3.55999e+07 -210548 1850.56 -0.252776 -747.686 0.05 
1098 1 -0.0776907 0.650419 7.00135 0 0 0 -0.280266 -342.359 -0.0682188 0 -43824.6 -39.8079 97.9772 0.0352206 -447.284 0.05 
11065 1 -0.676985 0.687267 7.00172 0 0 0 0 -0.659497 -0.0001962 0 -133790 -39.8079 0 0 0 0.05 
13682 1 -3.49943 0.779142 7.00059 0 0 0 211.225 -109.817 -310.188 6.57138e+06 -3.43525e+07 -2.41092e+06 -3761.63 6902.18 -2293.09 0.05 
13918 1 -3.39762 0.768587 7.00287 0 0 0 334.645 -112.064 -0.496461 -389805 -1.17083e+07 -681893 1143.8 7550.48 -7686.43 0.05 
8765 1 -2.64867 0.743279 7.00021 0 0 0 458.574 -289.624 0.209157 -1.58206 -964398 -39.8079 6231.04 8990.58 8896.36 0.05 
5525 1 -1.71873 0.759499 7.00433 0 0 0 -0.705276 -51.7007 -240.972 3.22838e+07 -3.10814e+07 -1.04905e+09 744.524 2268.72 82.9885 0.05 
6492 1 -1.69895 0.759964 6.96272 0 0 0 112.28 -193.771 -142422 -3.23599e+07 965838 1.04696e+09 16727.8 -13656.3 2393.12 0.05 
13280 1 -1.58285 0.752117 7.00241 0 0 0 0.864929 -15.8358 0.0607596 458647 -1.08275e+07 -898032 153.637 11.0896 -46.7888 0.05 
1151 1 -1.13884 0.74101 7.0072 0 0 0 -0.143702 -32.0582 -200.127 0 -883119 -39.8079 6297.96 1939.14 -1328.72 0.05 
12807 1 -0.28115 0.748891 7.00115 0 0 0 2.43349 -208.292 -5.11247 -479758 -6.85889e+07 735382 1872.72 -9.84607 1017.12 0.05 
7302 1 -3.51311 0.824387 7.00829 0 0 0 395.77 -3658.03 -299.453 6.70191e+06 1.59901e+07 -15511.1 2575.24 4783.25 388.623 0.05 
12715 1 -3.09488 0.796445 7.00522 0 0 0 532.613 -468.556 -2.79958 -585725 -1.13665e+07 615356 382.303 7299.79 4285.98 0.05 
12133 1 -2.35416 0.826676 7.00889 0 0 0 159.927 -3535.73 1.40471 -212699 -1.15164e+07 86332.2 -1185.73 4457.17 3352.86 0.05 
12721 1 -0.945827 0.835725 7.00874 0 0 0 0.236615 -2655.81 -197.947 -215896 -7.42232e+07 1.38008e+06 5169.65 6427.55 -418.127 0.05 
12971 1 -0.488418 0.82544 7.00932 0 0 0 0.614986 -793.958 -375.766 -106543 -4.46629e+07 -524968 5311.83 -1726.03 -644.885 0.05 
8282 1 -0.132561 0.803332 7.00935 0 0 0 0.0259048 -492.828 -0.159478 0 -1.38607e+07 -39.8079 5218.66 8.24512 -5141.88 0.05 
9812 1 -3.49713 -0.813071 7.04741 0 0 0 8124.73 4426.04 6.28422 -2.02668e+08 -3.6668e+07 -1.20134e+06 -3242.8 -586.283 7011.46 0.05 
3315 1 -3.52283 -0.811888 7.0471 0 0 0 259.716 4545.46 3.31092 7.67464e+07 -5.19047e+07 883619 -829.806 -7.33761 76.4322 0.05 
13799 1 -3.5119 -0.790137 7.01346 0 0 0 172.057 213.697 -15.5212 6.72457e+07 6.8833e+07 -5.31939e+06 -2731.19 2875.57 642.261 0.05 
3503 1 -3.40124 -0.799233 7.03286 0 0 0 3.35393 5381.06 3.44087 2.75992e+07 -4.7714e+07 2.1145e+06 -699.005 1.61247 0.733325 0.05 
196 1 -3.09802 -0.840675 7.01095 0 0 0 0.0184144 1794.79 -0.0146627 69.8673 1.1385e+08 -39.8079 -5335.05 0.855964 1988.31 0.05 
5328 1 -2.50459 -0.814798 7.04218 0 0 0 23.6098 490.205 -110.533 2.0118e+07 3.92086e+07 -6.61137e+08 -5944.51 4377.9 6677.04 0.05 
2998 1 -2.28318 -0.829449 7.03487 0 0 0 1.76711 3307.34 -0.484535 1.91498e+06 2.5414e+07 -598960 -663.012 -11.4346 547.031 0.05 
8924 1 -2.1772 -0.834604 7.04028 0 0 0 0.766619 937.893 0.0312533 -0.47731 7.83264e+07 -39.8079 100.661 -4.72561 5943.4 0.05 
3847 1 -1.89517 -0.803493 7.02186 0 0 0 0.728655 512.293 -1.22729 -0.250968 1.39749e+07 -39.8079 -4282.22 -6.35898 3437.52 0.05 
11919 1 -1.71674 -0.836648 7.03998 0 0 0 144.275 839.909 -0.425454 153809 8.70061e+07 -556617 4353.69 4632.61 6645.54 0.05 
7511 1 -1.59548 -0.822918 7.05581 0 0 0 8.00437 725.113 0.0338247 -0.138669 3.95737e+07 -39.8079 1055.26 206.745 -73.7087 0.05 
1959 1 -1.47942 -0.798972 7.02216 0 0 0 92.4511 5467.33 -328.153 -1.45617e+06 -1.51473e+07 1.02342e+06 -6540.13 2635.47 -316.425 0.05 
7214 1 -1.37457 -0.826585 7.04019 0 0 0 52.8846 710.296 0.118479 -0.0940116 4.87841e+07 -39.8079 1205.58 1709.53 -4107.52 0.05 
2483 1 -1.23788 -0.800068 7.02338 0 0 0 -1.38659 404.112 -2.04268 0 1.1757e+07 -39.8079 -1117.79 1.53888 991.24 0.05 
1945 1 -0.921266 -0.798382 7.05847 0 0 0 -2.27726 5420.08 3.3487 -882253 -5.47277e+07 1.79765e+06 -1965.34 30.8012 651.487 0.05 
4837 1 -3.58832 -0.778455 7.04035 0 0 0 2094.94 181.848 4.47031 9.39948e+07 4.1034e+07 3.63884e+06 -2738 7236.48 3680.13 0.05 
10435 1 -3.40171 -0.782328 7.02074 0 0 0 90.8417 163.4 -3.28565 -764757 4.92319e+07 -2.57489e+06 -756.359 3597.53 -1846.33 0.05 
1442 1 -3.17552 -0.758738 7.02102 0 0 0 135.18 295.134 -1.9452 712478 3.56396e+06 -222674 -566.349 5218.41 -6566.32 0.05 
9943 1 -2.93205 -0.771013 7.01532 0 0 0 75.5148 469.474 1.6479 -51593 1.30787e+07 -432895 -1997.78 3120.73 -1288.47 0.05 
3695 1 -2.81601 -0.784809 7.05284 0 0 0 192.782 299.278 0.895467 -1.13308e+06 1.62658e+07 1.00743e+06 1130.97 4306.86 -9736.89 0.05 
9165 1 -2.43735 -0.769915 7.0065 0 0 0 71.9361 50.1762 -141212 -1.62112e+07 -1.01798e+07 1.78593e+09 -46487.7 10618.1 -3056.8 0.05 
2986 1 -2.33933 -0.774215 7.02392 0 0 0 115.144 47.6638 -23.668 -5.60139e+06 2.29589e+07 -2.75448e+08 -219.471 3181.7 -1360.54 0.05 
10357 1 -2.11998 -0.753682 7.01963 0 0 0 178.944 341.832 -0.149779 -0.415902 1.45875e+06 -39.8079 688.288 4857.42 -5131.27 0.05 
5135 1 -1.13205 -0.748182 7.0594 0 0 0 9.62399 79.5475 -1.24682 1.05073e+06 3.73247e+07 -1.22599e+06 -159.148 -192.415 -42.8875 0.05 
7950 1 -0.983716 -0.779096 7.02039 0 0 0 -0.586665 312.777 -1.40117 -498653 3.46018e+07 -565769 -1010.06 28.4837 -4537.85 0.05 
8455 1 -0.880176 -0.759931 7.02995 0 0 0 2.919 70.5518 -2.01507 1.38091e+06 3.71571e+07 -1.232e+06 -842.764 2.09789 -1327.24 0.05 
14035 1 -0.502842 -0.768655 7.06059 0 0 0 2.63615 289.653 -280.589 -1.71185e+06 5.9566e+07 -423919 7640.07 2636.69 -3380.6 0.05 
3099 1 -0.402942 -0.763283 7.03153 0 0 0 0.452061 381.181 -91.5375 1.39652e+06 5.23862e+07 631984 -1820.22 -3539.22 2398.79 0.05 
7914 1 -0.276864 -0.744099 7.01916 0 0 0 0.218311 571.051 -0.696752 0 995755 -39.8079 -3601.38 20.2434 2843.57 0.05 
9896 1 -3.06923 -0.703154 7.01044 0 0 0 310.074 84.4881 -1.78773 -2.25907e+07 -5.91123e+08 -1.49095e+07 -5110.19 2034.6 -4169.11 0.05 
3621 1 -2.66528 -0.728057 7.01338 0 0 0 279.067 433.653 0.0169276 -1.63483 541965 -39.8079 -4624.46 4286.01 -7417.4 0.05 
8987 1 -2.22109 -0.731237 7.04798 0 0 0 388.468 33.3745 -0.302425 -0.531833 609645 -39.8079 481.978 3582.12 -2830.72 0.05 
8822 1 -1.96353 -0.706852 7.04468 0 0 0 420.75 374.406 -3.49413 5.29534e+08 7.06724e+07 3.25888e+06 -93.8611 1993.78 -7725.22 0.05 
12201 1 -1.59221 -0.693198 7.01804 0 0 0 291.189 378.274 0.0541072 -0.137836 162064 -39.8079 -5824.46 -1008.45 -5693.17 0.05 
5056 1 -1.49052 -0.713115 7.04667 0 0 0 204.479 188.581 -100.688 1.45617e+06 2.65961e+07 -1.0235e+06 3808.95 -3431.06 -11306.1 0.05 
6037 1 -0.538615 -0.692999 7.03716 0 0 0 99.6858 11091.1 -6.13626 1.05726e+09 -3.21969e+08 3.65087e+07 -3158.53 -934.277 -5321.25 0.05 
13416 1 -0.0535002 -0.705404 7.01741 0 0 0 0.512183 208.788 -0.347369 0 243332 -39.8079 -3621.2 0.0576502 -5308.31 0.05 
5834 1 -3.5512 -0.660375 7.01345 0 0 0 417.276 0.322248 0.125064 1.24414e+07 58549.4 -39.8079 -0.0222797 -488.626 187.09 0.05 
5196 1 -3.04845 -0.682892 7.0274 0 0 0 13.4749 -78786 2.91248 3.60785e+07 9.46158e+08 1.58589e+07 -13521.3 12.2329 2509.83 0.05 
13018 1 -2.96552 -0.647005 7.03241 0 0 0 314.326 213.071 0.648406 -1.34878e+07 -3.54654e+08 -949449 2759.04 -3248.22 4764.85 0.05 
10142 1 -2.86438 -0.637412 7.0407 0 0 0 155.041 14112.6 -6.00666 1.73399e+06 -1.5128e+08 -2.31559e+06 2712 4341.96 -3692.19 0.05 
9436 1 -2.74356 -0.659126 7.01093 0 0 0 342.696 302.856 -0.112392 -1.79856 56434 -39.8079 -706.719 -64.1326 3947.85 0.05 
1637 1 -2.05751 -0.662883 7.02217 0 0 0 330.595 444.92 0.0449976 -0.359383 63064.5 -39.8079 -2667.42 -1765.54 -2225.29 0.05 
3779 1 -1.79867 -0.671634 7.04411 0 0 0 289.36 190.855 3.08871 -280365 7.51681e+07 2.98136e+06 -2570.83 -4517.59 -1703.19 0.05 
8682 1 -1.38827 -0.679715 7.04812 0 0 0 372.793 417.622 0.564598 340975 4.07839e+07 -22319 459.346 -1928.01 1557.02 0.05 
12115 1 -1.2305 -0.64607 7.03041 0 0 0 252.675 13479.3 0.381183 -2.21496e+07 -7.08813e+08 -2.03198e+07 -97.7132 -2368.05 -2570.9 0.05 
275 1 -1.21508 -0.648992 7.04166 0 0 0 419.289 106.779 5.23484 -1.84016e+07 -3.5777e+08 -1.5764e+07 -5295.19 -421.015 1842.5 0.05 
10520 1 -1.02913 -0.673796 7.02697 0 0 0 318.279 330.452 0.214906 0 87696.8 -39.8079 1152.77 -2393.44 -3672.98 0.05 
6423 1 -0.930101 -0.656091 7.04164 0 0 0 296.46 0.219974 0.121497 0 51635.7 -39.8079 -0.798098 -4328.2 816.171 0.05 
73 1 -0.764189 -0.654068 7.04113 0 0 0 297.157 540.561 0.30961 0 48687.4 -39.8079 -2834.11 -4257.59 634.06 0.05 
2585 1 -0.643492 -0.673117 7.04487 0 0 0 279.926 -10.013 -0.0307003 6.65036e+08 8.5284e+06 -3.62848e+07 1817.71 -4523.96 -6997.2 0.05 
6401 1 -0.453354 -0.658838 7.02515 0 0 0 -3.31949 102.985 -2.90943 170421 1.22106e+08 -1.74584e+06 -1534.22 -4.72857 1501.92 0.05 
5416 1 -0.404256 -0.672196 7.05938 0 0 0 3.64575 12234.2 3.96725 -346244 -1.80266e+08 -565797 -4291.51 21.1042 7951.18 0.05 
3121 1 -0.274631 -0.644104 7.05734 0 0 0 -0.165075 628.249 0.162874 0 36622.2 -39.8079 1662.33 -5.51148 3248.35 0.05 
2309 1 -3.25021 -0.607104 7.02258 0 0 0 452.036 177.448 0.620732 -170394 1.16781e+08 -444953 -110.691 50.1911 2828.5 0.05 
7814 1 -3.21644 -0.588356 7.0236 0 0 0 17.8967 16494.9 -0.950069 2.18005e+06 -1.69289e+08 2.71405e+06 7917.96 31.7337 3419.29 0.05 
7075 1 -3.11558 -0.599963 7.02205 0 0 0 461.137 -59.2526 1.34327 -754909 -37021.1 494455 -3477.53 386.921 -2701.83 0.05 
13928 1 -2.65539 -0.624217 7.06046 0 0 0 338.574 553.915 -0.773152 -1.60376 21220 -39.8079 -1114.77 -6851.63 -2235.9 0.05 
12245 1 -0.178444 -0.622869 7.03066 0 0 0 2.42976 405.232 2.87546 -1.5273e+06 1.11944e+08 -2.99261e+06 193.804 4.03756 1974.51 0.05 
2360 1 -3.53671 -0.529111 7.0533 0 0 0 411.748 0.614296 -0.492856 3.2335e+07 -392526 -518930 -23.4947 -1219.74 1515.92 0.05 
10319 1 -2.99764 -0.54147 7.01418 0 0 0 316.848 96.0183 -0.536615 11.2882 2853.44 -39.8079 807.388 3243.68 9373.79 0.05 
7846 1 -2.60743 -0.536208 7.01787 0 0 0 319.059 265.541 -0.716776 -1.44384 2541.53 -39.8079 -5692.04 2710.59 822.998 0.05 
1727 1 -2.15425 -0.571203 7.03805 0 0 0 386.071 348.227 -106.883 1.89526e+07 -1.89041e+07 -9.61428e+08 -1150.3 -2958.89 3066.42 0.05 
7329 1 -1.91966 -0.533758 7.02994 0 0 0 325.531 0.457725 -0.155478 -0.264455 2409.14 -39.8079 -0.0363305 920.704 2427.58 0.05 
3581 1 -1.74541 -0.535284 7.01399 0 0 0 312.73 150.025 -214.64 7.8798e+06 -2.02457e+08 1.66379e+06 -6166.52 7921.98 7425.36 0.05 
6413 1 -1.57242 -0.575216 7.03223 0 0 0 406.344 316.583 -191.387 -337287 -134332 1.06544e+06 -9279.36 -2684.08 1687.77 0.05 
3168 1 -1.24943 -0.529051 7.02527 0 0 0 314.321 -314.435 -0.112146 0 2175.4 -39.8079 -2185.8 1602.83 5675.98 0.05 
5085 1 -1.08873 -0.57106 7.03986 0 0 0 419.727 287.205 -0.135155 0 5603.2 -39.8079 877.402 249.893 2538.86 0.05 