ITEM: TIMESTEP
3
ITEM: NUMBER OF ATOMS
1
ITEM: BOX BOUNDS ff ff ff
-10 10
-10 10
-10 10
ITEM: ATOMS id type fx fy fz x y z radius mux muy muz 
3 1 3.12126e-20 5.10238e-21 6.9221e-08 0 0 -2.7 1 0 3.1034 0 
