ITEM: TIMESTEP
2
ITEM: NUMBER OF ATOMS
2
ITEM: BOX BOUNDS ff ff ff
-10 10
-10 10
-10 10
ITEM: ATOMS id type fx fy fz x y z radius mux muy muz 
2 1 8.40404e-22 1.09047e-20 -1.10951e-07 0 0 -3.4 1 0 7.07788 0 
1 1 -1.82403e-21 -1.98397e-21 1.10951e-07 0 0 0 1 0 7.07788 0 
