ITEM: TIMESTEP
2
ITEM: NUMBER OF ATOMS
2
ITEM: BOX BOUNDS ff ff ff
-10 10
-10 10
-10 10
ITEM: ATOMS id type fx fy fz x y z radius mux muy muz 
2 1 3.13906e-20 -6.75598e-21 -9.92355e-08 0 0 -3.5 1 0 7.08634 0 
1 1 -4.30615e-20 1.72318e-20 9.92355e-08 0 0 0 1 0 7.08634 0 
