ITEM: TIMESTEP
1
ITEM: NUMBER OF ATOMS
2
ITEM: BOX BOUNDS ff ff ff
-10 10
-10 10
-10 10
ITEM: ATOMS id type fx fy fz x y z radius mux muy muz 
2 1 -5.57203e-21 3.36082e-20 -6.54293e-07 0 0 -2 1 0 6.70451 0 
1 1 2.58981e-20 -1.19454e-21 6.54293e-07 0 0 0 1 0 6.70189 0 
