ITEM: TIMESTEP
1
ITEM: NUMBER OF ATOMS
2
ITEM: BOX BOUNDS ff ff ff
-10 10
-10 10
-10 10
ITEM: ATOMS id type fx fy fz x y z radius mux muy muz 
2 1 3.02857e-20 -1.9813e-20 -7.21278e-08 0 0 -3.8 1 0 7.10677 0 
1 1 -1.36074e-20 6.23773e-21 7.21278e-08 0 0 0 1 0 7.10677 0 
