ITEM: TIMESTEP
1
ITEM: NUMBER OF ATOMS
2
ITEM: BOX BOUNDS ff ff ff
-10 10
-10 10
-10 10
ITEM: ATOMS id type fx fy fz x y z radius mux muy muz 
2 1 2.82198e-20 -2.19555e-20 -1.78273e-07 0 0 -3 1 0 7.03196 0 
1 1 -8.79994e-21 4.34067e-22 1.78273e-07 0 0 0 1 0 7.03196 0 
