ITEM: TIMESTEP
1
ITEM: NUMBER OF ATOMS
2
ITEM: BOX BOUNDS ff ff ff
-10 10
-10 10
-10 10
ITEM: ATOMS id type fx fy fz x y z radius mux muy muz 
2 1 -6.78349e-21 6.63635e-21 -8.89948e-08 0 0 -3.6 1 0 7.0939 0 
1 1 3.52884e-20 2.62485e-20 8.89948e-08 0 0 0 1 0 7.0939 0 
