ITEM: TIMESTEP
1
ITEM: NUMBER OF ATOMS
2
ITEM: BOX BOUNDS ff ff ff
-10 10
-10 10
-10 10
ITEM: ATOMS id type fx fy fz x y z radius mux muy muz 
2 1 6.85807e-21 -3.26909e-21 -3.91021e-07 0 0 -2.4 1 0 6.89574 0 
1 1 -3.03174e-20 -3.78053e-20 3.91021e-07 0 0 0 1 0 6.89574 0 
