ITEM: TIMESTEP
0
ITEM: NUMBER OF ATOMS
2
ITEM: BOX BOUNDS ff ff ff
-10 10
-10 10
-10 10
ITEM: ATOMS id type fx fy fz x y z radius mux muy muz 
2 1 4.13638e-20 -7.9461e-21 -1.10955e-07 0 0 -3.4 1 0 7.07802 0 
1 1 3.62073e-20 3.0822e-20 1.10955e-07 0 0 0 1 0 7.07788 0 
