ITEM: TIMESTEP
0
ITEM: NUMBER OF ATOMS
2
ITEM: BOX BOUNDS ff ff ff
-10 10
-10 10
-10 10
ITEM: ATOMS id type fx fy fz x y z radius mux muy muz 
2 1 1.54066e-20 -3.23327e-20 -4.47218e-07 0 0 -2.3 1 0 6.86071 0 
1 1 -3.90553e-21 1.56289e-20 4.47218e-07 0 0 0 1 0 6.85857 0 
