ITEM: TIMESTEP
0
ITEM: NUMBER OF ATOMS
2
ITEM: BOX BOUNDS ff ff ff
-10 10
-10 10
-10 10
ITEM: ATOMS id type fx fy fz x y z radius mux muy muz 
2 1 1.74885e-20 3.3646e-21 -1.24396e-07 0 0 -3.3 1 0 7.06856 0 
1 1 1.21383e-20 -5.26293e-22 1.24396e-07 0 0 0 1 0 7.06839 0 
