ITEM: TIMESTEP
2
ITEM: NUMBER OF ATOMS
2
ITEM: BOX BOUNDS ff ff ff
-10 10
-10 10
-10 10
ITEM: ATOMS id type fx fy fz x y z radius mux muy muz 
2 1 -1.09503e-20 -4.45078e-20 -1.78273e-07 0 0 -3 1 0 7.03196 0 
1 1 1.7875e-20 -1.97933e-20 1.78273e-07 0 0 0 1 0 7.03196 0 
