ITEM: TIMESTEP
2
ITEM: NUMBER OF ATOMS
2
ITEM: BOX BOUNDS ff ff ff
-10 10
-10 10
-10 10
ITEM: ATOMS id type fx fy fz x y z radius mux muy muz 
2 1 -3.02695e-20 -1.28761e-20 -2.29773e-07 0 0 -2.8 1 0 6.9986 0 
1 1 -2.36373e-20 1.50875e-20 2.29773e-07 0 0 0 1 0 6.9986 0 
