ITEM: TIMESTEP
0
ITEM: NUMBER OF ATOMS
2
ITEM: BOX BOUNDS ff ff ff
-10 10
-10 10
-10 10
ITEM: ATOMS id type fx fy fz x y z radius mux muy muz 
2 1 -1.75097e-20 -1.10277e-20 -5.90272e-08 0 0 -4 1 0 7.11728 0 
1 1 3.79089e-20 6.13042e-21 5.90272e-08 0 0 0 1 0 7.11724 0 
