ITEM: TIMESTEP
2
ITEM: NUMBER OF ATOMS
2
ITEM: BOX BOUNDS ff ff ff
-10 10
-10 10
-10 10
ITEM: ATOMS id type fx fy fz x y z radius mux muy muz 
2 1 -1.82912e-20 -4.51495e-22 -3.41826e-07 0 0 -2.5 1 0 6.92744 0 
1 1 9.42413e-21 1.01033e-20 3.41826e-07 0 0 0 1 0 6.92744 0 
