ITEM: TIMESTEP
1
ITEM: NUMBER OF ATOMS
2
ITEM: BOX BOUNDS ff ff ff
-10 10
-10 10
-10 10
ITEM: ATOMS id type fx fy fz x y z radius mux muy muz 
2 1 5.41475e-20 -6.59601e-21 -5.90264e-08 0 0 -4 1 0 7.11724 0 
1 1 3.28952e-20 1.63451e-20 5.90264e-08 0 0 0 1 0 7.11724 0 
