ITEM: TIMESTEP
0
ITEM: NUMBER OF ATOMS
1
ITEM: BOX BOUNDS ff ff ff
-10 10
-10 10
-10 10
ITEM: ATOMS id type fx fy fz x y z radius mux muy muz 
3 1 -4.66832e-23 -1.21568e-20 -4.33672e-08 0 0 -2.8 1 0 3.10735 0 
