ITEM: TIMESTEP
0
ITEM: NUMBER OF ATOMS
2
ITEM: BOX BOUNDS ff ff ff
-10 10
-10 10
-10 10
ITEM: ATOMS id type fx fy fz x y z radius mux muy muz 
2 1 1.44362e-07 -3.05901 -2.74507e-07 0 0 -2.1 1 0 3.05936 0 
1 1 -1.44362e-07 -3.05936 2.74507e-07 0 0 0 1 0 3.05901 0 
