ITEM: TIMESTEP
1
ITEM: NUMBER OF ATOMS
2
ITEM: BOX BOUNDS ff ff ff
-10 10
-10 10
-10 10
ITEM: ATOMS id type fx fy fz x y z radius mux muy muz 
2 1 1.26914e-08 -3.12841 -2.5344e-08 0 0 -3.9 1 0 3.12841 0 
1 1 -1.26914e-08 -3.12841 2.5344e-08 0 0 0 1 0 3.12841 0 
