ITEM: TIMESTEP
0
ITEM: NUMBER OF ATOMS
2
ITEM: BOX BOUNDS ff ff ff
-10 10
-10 10
-10 10
ITEM: ATOMS id type fx fy fz x y z radius mux muy muz 
2 1 5.43265e-08 -3.10219 -1.07397e-07 0 0 -2.7 1 0 3.10225 0 
1 1 -5.43265e-08 -3.10225 1.07397e-07 0 0 0 1 0 3.10219 0 
