ITEM: TIMESTEP
112000
ITEM: NUMBER OF ATOMS
24482
ITEM: BOX BOUNDS ff ff ff
0 0.126
0 0.018
0 0.177
ITEM: ATOMS id type x y z vx vy vz radius fx fy fz mass 
1 1 0 0 0 0 0 0 0.0005 0 0 0 1.309e-06 
2 1 0.0005 0.0005 0 0 0 0 0.0005 0 0 0 1.309e-06 
3 1 0.0005 0 0.0005 0 0 0 0.0005 0 0 0 1.309e-06 
4 1 0 0.0005 0.0005 0 0 0 0.0005 0 0 0 1.309e-06 
5 1 0.001 0 0 0 0 0 0.0005 0 0 0 1.309e-06 
8 1 0.001 0.0005 0.0005 0 0 0 0.0005 0 0 0 1.309e-06 
505 1 0 0.001 0 0 0 0 0.0005 0 0 0 1.309e-06 
507 1 0.0005 0.001 0.0005 0 0 0 0.0005 0 0 0 1.309e-06 
509 1 0.001 0.001 0 0 0 0 0.0005 0 0 0 1.309e-06 
9073 1 0 0 0.001 0 0 0 0.0005 0 0 0 1.309e-06 
9074 1 0.0005 0.0005 0.001 0 0 0 0.0005 0 0 0 1.309e-06 
9075 1 0.001 0 0.001 0 0 0 0.0005 0 0 0 1.309e-06 
9325 1 0 0.001 0.001 0 0 0 0.0005 0 0 0 1.309e-06 
9327 1 0.001 0.001 0.001 0 0 0 0.0005 0 0 0 1.309e-06 
6 1 0.0015 0.0005 0 0 0 0 0.0005 0 0 0 1.309e-06 
7 1 0.0015 0 0.0005 0 0 0 0.0005 0 0 0 1.309e-06 
9 1 0.002 0 0 0 0 0 0.0005 0 0 0 1.309e-06 
12 1 0.002 0.0005 0.0005 0 0 0 0.0005 0 0 0 1.309e-06 
511 1 0.0015 0.001 0.0005 0 0 0 0.0005 0 0 0 1.309e-06 
513 1 0.002 0.001 0 0 0 0 0.0005 0 0 0 1.309e-06 
9076 1 0.0015 0.0005 0.001 0 0 0 0.0005 0 0 0 1.309e-06 
9077 1 0.002 0 0.001 0 0 0 0.0005 0 0 0 1.309e-06 
9329 1 0.002 0.001 0.001 0 0 0 0.0005 0 0 0 1.309e-06 
10 1 0.0025 0.0005 0 0 0 0 0.0005 0 0 0 1.309e-06 
11 1 0.0025 0 0.0005 0 0 0 0.0005 0 0 0 1.309e-06 
13 1 0.003 0 0 0 0 0 0.0005 0 0 0 1.309e-06 
16 1 0.003 0.0005 0.0005 0 0 0 0.0005 0 0 0 1.309e-06 
515 1 0.0025 0.001 0.0005 0 0 0 0.0005 0 0 0 1.309e-06 
517 1 0.003 0.001 0 0 0 0 0.0005 0 0 0 1.309e-06 
9078 1 0.0025 0.0005 0.001 0 0 0 0.0005 0 0 0 1.309e-06 
9079 1 0.003 0 0.001 0 0 0 0.0005 0 0 0 1.309e-06 
9331 1 0.003 0.001 0.001 0 0 0 0.0005 0 0 0 1.309e-06 
14 1 0.0035 0.0005 0 0 0 0 0.0005 0 0 0 1.309e-06 
15 1 0.0035 0 0.0005 0 0 0 0.0005 0 0 0 1.309e-06 
17 1 0.004 0 0 0 0 0 0.0005 0 0 0 1.309e-06 
20 1 0.004 0.0005 0.0005 0 0 0 0.0005 0 0 0 1.309e-06 
519 1 0.0035 0.001 0.0005 0 0 0 0.0005 0 0 0 1.309e-06 
521 1 0.004 0.001 0 0 0 0 0.0005 0 0 0 1.309e-06 
9080 1 0.0035 0.0005 0.001 0 0 0 0.0005 0 0 0 1.309e-06 
9081 1 0.004 0 0.001 0 0 0 0.0005 0 0 0 1.309e-06 
9333 1 0.004 0.001 0.001 0 0 0 0.0005 0 0 0 1.309e-06 
18 1 0.0045 0.0005 0 0 0 0 0.0005 0 0 0 1.309e-06 
19 1 0.0045 0 0.0005 0 0 0 0.0005 0 0 0 1.309e-06 
21 1 0.005 0 0 0 0 0 0.0005 0 0 0 1.309e-06 
24 1 0.005 0.0005 0.0005 0 0 0 0.0005 0 0 0 1.309e-06 
523 1 0.0045 0.001 0.0005 0 0 0 0.0005 0 0 0 1.309e-06 
525 1 0.005 0.001 0 0 0 0 0.0005 0 0 0 1.309e-06 
9082 1 0.0045 0.0005 0.001 0 0 0 0.0005 0 0 0 1.309e-06 
9083 1 0.005 0 0.001 0 0 0 0.0005 0 0 0 1.309e-06 
9335 1 0.005 0.001 0.001 0 0 0 0.0005 0 0 0 1.309e-06 
22 1 0.0055 0.0005 0 0 0 0 0.0005 0 0 0 1.309e-06 
23 1 0.0055 0 0.0005 0 0 0 0.0005 0 0 0 1.309e-06 
25 1 0.006 0 0 0 0 0 0.0005 0 0 0 1.309e-06 
28 1 0.006 0.0005 0.0005 0 0 0 0.0005 0 0 0 1.309e-06 
527 1 0.0055 0.001 0.0005 0 0 0 0.0005 0 0 0 1.309e-06 
529 1 0.006 0.001 0 0 0 0 0.0005 0 0 0 1.309e-06 
9084 1 0.0055 0.0005 0.001 0 0 0 0.0005 0 0 0 1.309e-06 
9085 1 0.006 0 0.001 0 0 0 0.0005 0 0 0 1.309e-06 
9337 1 0.006 0.001 0.001 0 0 0 0.0005 0 0 0 1.309e-06 
26 1 0.0065 0.0005 0 0 0 0 0.0005 0 0 0 1.309e-06 
27 1 0.0065 0 0.0005 0 0 0 0.0005 0 0 0 1.309e-06 
29 1 0.007 0 0 0 0 0 0.0005 0 0 0 1.309e-06 
32 1 0.007 0.0005 0.0005 0 0 0 0.0005 0 0 0 1.309e-06 
531 1 0.0065 0.001 0.0005 0 0 0 0.0005 0 0 0 1.309e-06 
533 1 0.007 0.001 0 0 0 0 0.0005 0 0 0 1.309e-06 
9086 1 0.0065 0.0005 0.001 0 0 0 0.0005 0 0 0 1.309e-06 
9087 1 0.007 0 0.001 0 0 0 0.0005 0 0 0 1.309e-06 
9339 1 0.007 0.001 0.001 0 0 0 0.0005 0 0 0 1.309e-06 
30 1 0.0075 0.0005 0 0 0 0 0.0005 0 0 0 1.309e-06 
31 1 0.0075 0 0.0005 0 0 0 0.0005 0 0 0 1.309e-06 
33 1 0.008 0 0 0 0 0 0.0005 0 0 0 1.309e-06 
36 1 0.008 0.0005 0.0005 0 0 0 0.0005 0 0 0 1.309e-06 
535 1 0.0075 0.001 0.0005 0 0 0 0.0005 0 0 0 1.309e-06 
537 1 0.008 0.001 0 0 0 0 0.0005 0 0 0 1.309e-06 
9088 1 0.0075 0.0005 0.001 0 0 0 0.0005 0 0 0 1.309e-06 
9089 1 0.008 0 0.001 0 0 0 0.0005 0 0 0 1.309e-06 
9341 1 0.008 0.001 0.001 0 0 0 0.0005 0 0 0 1.309e-06 
34 1 0.0085 0.0005 0 0 0 0 0.0005 0 0 0 1.309e-06 
35 1 0.0085 0 0.0005 0 0 0 0.0005 0 0 0 1.309e-06 
37 1 0.009 0 0 0 0 0 0.0005 0 0 0 1.309e-06 
40 1 0.009 0.0005 0.0005 0 0 0 0.0005 0 0 0 1.309e-06 
539 1 0.0085 0.001 0.0005 0 0 0 0.0005 0 0 0 1.309e-06 
541 1 0.009 0.001 0 0 0 0 0.0005 0 0 0 1.309e-06 
9090 1 0.0085 0.0005 0.001 0 0 0 0.0005 0 0 0 1.309e-06 
9091 1 0.009 0 0.001 0 0 0 0.0005 0 0 0 1.309e-06 
9343 1 0.009 0.001 0.001 0 0 0 0.0005 0 0 0 1.309e-06 
38 1 0.0095 0.0005 0 0 0 0 0.0005 0 0 0 1.309e-06 
39 1 0.0095 0 0.0005 0 0 0 0.0005 0 0 0 1.309e-06 
41 1 0.01 0 0 0 0 0 0.0005 0 0 0 1.309e-06 
44 1 0.01 0.0005 0.0005 0 0 0 0.0005 0 0 0 1.309e-06 
543 1 0.0095 0.001 0.0005 0 0 0 0.0005 0 0 0 1.309e-06 
545 1 0.01 0.001 0 0 0 0 0.0005 0 0 0 1.309e-06 
9092 1 0.0095 0.0005 0.001 0 0 0 0.0005 0 0 0 1.309e-06 
9093 1 0.01 0 0.001 0 0 0 0.0005 0 0 0 1.309e-06 
9345 1 0.01 0.001 0.001 0 0 0 0.0005 0 0 0 1.309e-06 
42 1 0.0105 0.0005 0 0 0 0 0.0005 0 0 0 1.309e-06 
43 1 0.0105 0 0.0005 0 0 0 0.0005 0 0 0 1.309e-06 
45 1 0.011 0 0 0 0 0 0.0005 0 0 0 1.309e-06 
46 1 0.0115 0.0005 0 0 0 0 0.0005 0 0 0 1.309e-06 
47 1 0.0115 0 0.0005 0 0 0 0.0005 0 0 0 1.309e-06 
48 1 0.011 0.0005 0.0005 0 0 0 0.0005 0 0 0 1.309e-06 
547 1 0.0105 0.001 0.0005 0 0 0 0.0005 0 0 0 1.309e-06 
549 1 0.011 0.001 0 0 0 0 0.0005 0 0 0 1.309e-06 
551 1 0.0115 0.001 0.0005 0 0 0 0.0005 0 0 0 1.309e-06 
9094 1 0.0105 0.0005 0.001 0 0 0 0.0005 0 0 0 1.309e-06 
9095 1 0.011 0 0.001 0 0 0 0.0005 0 0 0 1.309e-06 
9096 1 0.0115 0.0005 0.001 0 0 0 0.0005 0 0 0 1.309e-06 
9347 1 0.011 0.001 0.001 0 0 0 0.0005 0 0 0 1.309e-06 
49 1 0.012 0 0 0 0 0 0.0005 0 0 0 1.309e-06 
50 1 0.0125 0.0005 0 0 0 0 0.0005 0 0 0 1.309e-06 
51 1 0.0125 0 0.0005 0 0 0 0.0005 0 0 0 1.309e-06 
52 1 0.012 0.0005 0.0005 0 0 0 0.0005 0 0 0 1.309e-06 
553 1 0.012 0.001 0 0 0 0 0.0005 0 0 0 1.309e-06 
555 1 0.0125 0.001 0.0005 0 0 0 0.0005 0 0 0 1.309e-06 
9097 1 0.012 0 0.001 0 0 0 0.0005 0 0 0 1.309e-06 
9098 1 0.0125 0.0005 0.001 0 0 0 0.0005 0 0 0 1.309e-06 
9349 1 0.012 0.001 0.001 0 0 0 0.0005 0 0 0 1.309e-06 
53 1 0.013 0 0 0 0 0 0.0005 0 0 0 1.309e-06 
54 1 0.0135 0.0005 0 0 0 0 0.0005 0 0 0 1.309e-06 
55 1 0.0135 0 0.0005 0 0 0 0.0005 0 0 0 1.309e-06 
56 1 0.013 0.0005 0.0005 0 0 0 0.0005 0 0 0 1.309e-06 
557 1 0.013 0.001 0 0 0 0 0.0005 0 0 0 1.309e-06 
559 1 0.0135 0.001 0.0005 0 0 0 0.0005 0 0 0 1.309e-06 
9099 1 0.013 0 0.001 0 0 0 0.0005 0 0 0 1.309e-06 
9100 1 0.0135 0.0005 0.001 0 0 0 0.0005 0 0 0 1.309e-06 
9351 1 0.013 0.001 0.001 0 0 0 0.0005 0 0 0 1.309e-06 
57 1 0.014 0 0 0 0 0 0.0005 0 0 0 1.309e-06 
58 1 0.0145 0.0005 0 0 0 0 0.0005 0 0 0 1.309e-06 
59 1 0.0145 0 0.0005 0 0 0 0.0005 0 0 0 1.309e-06 
60 1 0.014 0.0005 0.0005 0 0 0 0.0005 0 0 0 1.309e-06 
561 1 0.014 0.001 0 0 0 0 0.0005 0 0 0 1.309e-06 
563 1 0.0145 0.001 0.0005 0 0 0 0.0005 0 0 0 1.309e-06 
9101 1 0.014 0 0.001 0 0 0 0.0005 0 0 0 1.309e-06 
9102 1 0.0145 0.0005 0.001 0 0 0 0.0005 0 0 0 1.309e-06 
9353 1 0.014 0.001 0.001 0 0 0 0.0005 0 0 0 1.309e-06 
61 1 0.015 0 0 0 0 0 0.0005 0 0 0 1.309e-06 
62 1 0.0155 0.0005 0 0 0 0 0.0005 0 0 0 1.309e-06 
63 1 0.0155 0 0.0005 0 0 0 0.0005 0 0 0 1.309e-06 
64 1 0.015 0.0005 0.0005 0 0 0 0.0005 0 0 0 1.309e-06 
565 1 0.015 0.001 0 0 0 0 0.0005 0 0 0 1.309e-06 
567 1 0.0155 0.001 0.0005 0 0 0 0.0005 0 0 0 1.309e-06 
9103 1 0.015 0 0.001 0 0 0 0.0005 0 0 0 1.309e-06 
9104 1 0.0155 0.0005 0.001 0 0 0 0.0005 0 0 0 1.309e-06 
9355 1 0.015 0.001 0.001 0 0 0 0.0005 0 0 0 1.309e-06 
65 1 0.016 0 0 0 0 0 0.0005 0 0 0 1.309e-06 
66 1 0.0165 0.0005 0 0 0 0 0.0005 0 0 0 1.309e-06 
67 1 0.0165 0 0.0005 0 0 0 0.0005 0 0 0 1.309e-06 
68 1 0.016 0.0005 0.0005 0 0 0 0.0005 0 0 0 1.309e-06 
569 1 0.016 0.001 0 0 0 0 0.0005 0 0 0 1.309e-06 
571 1 0.0165 0.001 0.0005 0 0 0 0.0005 0 0 0 1.309e-06 
9105 1 0.016 0 0.001 0 0 0 0.0005 0 0 0 1.309e-06 
9106 1 0.0165 0.0005 0.001 0 0 0 0.0005 0 0 0 1.309e-06 
9357 1 0.016 0.001 0.001 0 0 0 0.0005 0 0 0 1.309e-06 
69 1 0.017 0 0 0 0 0 0.0005 0 0 0 1.309e-06 
70 1 0.0175 0.0005 0 0 0 0 0.0005 0 0 0 1.309e-06 
71 1 0.0175 0 0.0005 0 0 0 0.0005 0 0 0 1.309e-06 
72 1 0.017 0.0005 0.0005 0 0 0 0.0005 0 0 0 1.309e-06 
573 1 0.017 0.001 0 0 0 0 0.0005 0 0 0 1.309e-06 
575 1 0.0175 0.001 0.0005 0 0 0 0.0005 0 0 0 1.309e-06 
9107 1 0.017 0 0.001 0 0 0 0.0005 0 0 0 1.309e-06 
9108 1 0.0175 0.0005 0.001 0 0 0 0.0005 0 0 0 1.309e-06 
9359 1 0.017 0.001 0.001 0 0 0 0.0005 0 0 0 1.309e-06 
73 1 0.018 0 0 0 0 0 0.0005 0 0 0 1.309e-06 
74 1 0.0185 0.0005 0 0 0 0 0.0005 0 0 0 1.309e-06 
75 1 0.0185 0 0.0005 0 0 0 0.0005 0 0 0 1.309e-06 
76 1 0.018 0.0005 0.0005 0 0 0 0.0005 0 0 0 1.309e-06 
577 1 0.018 0.001 0 0 0 0 0.0005 0 0 0 1.309e-06 
579 1 0.0185 0.001 0.0005 0 0 0 0.0005 0 0 0 1.309e-06 
9109 1 0.018 0 0.001 0 0 0 0.0005 0 0 0 1.309e-06 
9110 1 0.0185 0.0005 0.001 0 0 0 0.0005 0 0 0 1.309e-06 
9361 1 0.018 0.001 0.001 0 0 0 0.0005 0 0 0 1.309e-06 
77 1 0.019 0 0 0 0 0 0.0005 0 0 0 1.309e-06 
78 1 0.0195 0.0005 0 0 0 0 0.0005 0 0 0 1.309e-06 
79 1 0.0195 0 0.0005 0 0 0 0.0005 0 0 0 1.309e-06 
80 1 0.019 0.0005 0.0005 0 0 0 0.0005 0 0 0 1.309e-06 
581 1 0.019 0.001 0 0 0 0 0.0005 0 0 0 1.309e-06 
583 1 0.0195 0.001 0.0005 0 0 0 0.0005 0 0 0 1.309e-06 
9111 1 0.019 0 0.001 0 0 0 0.0005 0 0 0 1.309e-06 
9112 1 0.0195 0.0005 0.001 0 0 0 0.0005 0 0 0 1.309e-06 
9363 1 0.019 0.001 0.001 0 0 0 0.0005 0 0 0 1.309e-06 
81 1 0.02 0 0 0 0 0 0.0005 0 0 0 1.309e-06 
82 1 0.0205 0.0005 0 0 0 0 0.0005 0 0 0 1.309e-06 
83 1 0.0205 0 0.0005 0 0 0 0.0005 0 0 0 1.309e-06 
84 1 0.02 0.0005 0.0005 0 0 0 0.0005 0 0 0 1.309e-06 
585 1 0.02 0.001 0 0 0 0 0.0005 0 0 0 1.309e-06 
587 1 0.0205 0.001 0.0005 0 0 0 0.0005 0 0 0 1.309e-06 
9113 1 0.02 0 0.001 0 0 0 0.0005 0 0 0 1.309e-06 
9114 1 0.0205 0.0005 0.001 0 0 0 0.0005 0 0 0 1.309e-06 
9365 1 0.02 0.001 0.001 0 0 0 0.0005 0 0 0 1.309e-06 
85 1 0.021 0 0 0 0 0 0.0005 0 0 0 1.309e-06 
86 1 0.0215 0.0005 0 0 0 0 0.0005 0 0 0 1.309e-06 
87 1 0.0215 0 0.0005 0 0 0 0.0005 0 0 0 1.309e-06 
88 1 0.021 0.0005 0.0005 0 0 0 0.0005 0 0 0 1.309e-06 
89 1 0.022 0 0 0 0 0 0.0005 0 0 0 1.309e-06 
92 1 0.022 0.0005 0.0005 0 0 0 0.0005 0 0 0 1.309e-06 
589 1 0.021 0.001 0 0 0 0 0.0005 0 0 0 1.309e-06 
591 1 0.0215 0.001 0.0005 0 0 0 0.0005 0 0 0 1.309e-06 
593 1 0.022 0.001 0 0 0 0 0.0005 0 0 0 1.309e-06 
9115 1 0.021 0 0.001 0 0 0 0.0005 0 0 0 1.309e-06 
9116 1 0.0215 0.0005 0.001 0 0 0 0.0005 0 0 0 1.309e-06 
9117 1 0.022 0 0.001 0 0 0 0.0005 0 0 0 1.309e-06 
9367 1 0.021 0.001 0.001 0 0 0 0.0005 0 0 0 1.309e-06 
9369 1 0.022 0.001 0.001 0 0 0 0.0005 0 0 0 1.309e-06 
90 1 0.0225 0.0005 0 0 0 0 0.0005 0 0 0 1.309e-06 
91 1 0.0225 0 0.0005 0 0 0 0.0005 0 0 0 1.309e-06 
93 1 0.023 0 0 0 0 0 0.0005 0 0 0 1.309e-06 
96 1 0.023 0.0005 0.0005 0 0 0 0.0005 0 0 0 1.309e-06 
595 1 0.0225 0.001 0.0005 0 0 0 0.0005 0 0 0 1.309e-06 
597 1 0.023 0.001 0 0 0 0 0.0005 0 0 0 1.309e-06 
9118 1 0.0225 0.0005 0.001 0 0 0 0.0005 0 0 0 1.309e-06 
9119 1 0.023 0 0.001 0 0 0 0.0005 0 0 0 1.309e-06 
9371 1 0.023 0.001 0.001 0 0 0 0.0005 0 0 0 1.309e-06 
94 1 0.0235 0.0005 0 0 0 0 0.0005 0 0 0 1.309e-06 
95 1 0.0235 0 0.0005 0 0 0 0.0005 0 0 0 1.309e-06 
97 1 0.024 0 0 0 0 0 0.0005 0 0 0 1.309e-06 
100 1 0.024 0.0005 0.0005 0 0 0 0.0005 0 0 0 1.309e-06 
599 1 0.0235 0.001 0.0005 0 0 0 0.0005 0 0 0 1.309e-06 
601 1 0.024 0.001 0 0 0 0 0.0005 0 0 0 1.309e-06 
9120 1 0.0235 0.0005 0.001 0 0 0 0.0005 0 0 0 1.309e-06 
9121 1 0.024 0 0.001 0 0 0 0.0005 0 0 0 1.309e-06 
9373 1 0.024 0.001 0.001 0 0 0 0.0005 0 0 0 1.309e-06 
98 1 0.0245 0.0005 0 0 0 0 0.0005 0 0 0 1.309e-06 
99 1 0.0245 0 0.0005 0 0 0 0.0005 0 0 0 1.309e-06 
101 1 0.025 0 0 0 0 0 0.0005 0 0 0 1.309e-06 
104 1 0.025 0.0005 0.0005 0 0 0 0.0005 0 0 0 1.309e-06 
603 1 0.0245 0.001 0.0005 0 0 0 0.0005 0 0 0 1.309e-06 
605 1 0.025 0.001 0 0 0 0 0.0005 0 0 0 1.309e-06 
9122 1 0.0245 0.0005 0.001 0 0 0 0.0005 0 0 0 1.309e-06 
9123 1 0.025 0 0.001 0 0 0 0.0005 0 0 0 1.309e-06 
9375 1 0.025 0.001 0.001 0 0 0 0.0005 0 0 0 1.309e-06 
102 1 0.0255 0.0005 0 0 0 0 0.0005 0 0 0 1.309e-06 
103 1 0.0255 0 0.0005 0 0 0 0.0005 0 0 0 1.309e-06 
105 1 0.026 0 0 0 0 0 0.0005 0 0 0 1.309e-06 
108 1 0.026 0.0005 0.0005 0 0 0 0.0005 0 0 0 1.309e-06 
607 1 0.0255 0.001 0.0005 0 0 0 0.0005 0 0 0 1.309e-06 
609 1 0.026 0.001 0 0 0 0 0.0005 0 0 0 1.309e-06 
9124 1 0.0255 0.0005 0.001 0 0 0 0.0005 0 0 0 1.309e-06 
9125 1 0.026 0 0.001 0 0 0 0.0005 0 0 0 1.309e-06 
9377 1 0.026 0.001 0.001 0 0 0 0.0005 0 0 0 1.309e-06 
106 1 0.0265 0.0005 0 0 0 0 0.0005 0 0 0 1.309e-06 
107 1 0.0265 0 0.0005 0 0 0 0.0005 0 0 0 1.309e-06 
109 1 0.027 0 0 0 0 0 0.0005 0 0 0 1.309e-06 
112 1 0.027 0.0005 0.0005 0 0 0 0.0005 0 0 0 1.309e-06 
611 1 0.0265 0.001 0.0005 0 0 0 0.0005 0 0 0 1.309e-06 
613 1 0.027 0.001 0 0 0 0 0.0005 0 0 0 1.309e-06 
9126 1 0.0265 0.0005 0.001 0 0 0 0.0005 0 0 0 1.309e-06 
9127 1 0.027 0 0.001 0 0 0 0.0005 0 0 0 1.309e-06 
9379 1 0.027 0.001 0.001 0 0 0 0.0005 0 0 0 1.309e-06 
110 1 0.0275 0.0005 0 0 0 0 0.0005 0 0 0 1.309e-06 
111 1 0.0275 0 0.0005 0 0 0 0.0005 0 0 0 1.309e-06 
113 1 0.028 0 0 0 0 0 0.0005 0 0 0 1.309e-06 
116 1 0.028 0.0005 0.0005 0 0 0 0.0005 0 0 0 1.309e-06 
615 1 0.0275 0.001 0.0005 0 0 0 0.0005 0 0 0 1.309e-06 
617 1 0.028 0.001 0 0 0 0 0.0005 0 0 0 1.309e-06 
9128 1 0.0275 0.0005 0.001 0 0 0 0.0005 0 0 0 1.309e-06 
9129 1 0.028 0 0.001 0 0 0 0.0005 0 0 0 1.309e-06 
9381 1 0.028 0.001 0.001 0 0 0 0.0005 0 0 0 1.309e-06 
114 1 0.0285 0.0005 0 0 0 0 0.0005 0 0 0 1.309e-06 
115 1 0.0285 0 0.0005 0 0 0 0.0005 0 0 0 1.309e-06 
117 1 0.029 0 0 0 0 0 0.0005 0 0 0 1.309e-06 
120 1 0.029 0.0005 0.0005 0 0 0 0.0005 0 0 0 1.309e-06 
619 1 0.0285 0.001 0.0005 0 0 0 0.0005 0 0 0 1.309e-06 
621 1 0.029 0.001 0 0 0 0 0.0005 0 0 0 1.309e-06 
9130 1 0.0285 0.0005 0.001 0 0 0 0.0005 0 0 0 1.309e-06 
9131 1 0.029 0 0.001 0 0 0 0.0005 0 0 0 1.309e-06 
9383 1 0.029 0.001 0.001 0 0 0 0.0005 0 0 0 1.309e-06 
118 1 0.0295 0.0005 0 0 0 0 0.0005 0 0 0 1.309e-06 
119 1 0.0295 0 0.0005 0 0 0 0.0005 0 0 0 1.309e-06 
121 1 0.03 0 0 0 0 0 0.0005 0 0 0 1.309e-06 
124 1 0.03 0.0005 0.0005 0 0 0 0.0005 0 0 0 1.309e-06 
623 1 0.0295 0.001 0.0005 0 0 0 0.0005 0 0 0 1.309e-06 
625 1 0.03 0.001 0 0 0 0 0.0005 0 0 0 1.309e-06 
9132 1 0.0295 0.0005 0.001 0 0 0 0.0005 0 0 0 1.309e-06 
9133 1 0.03 0 0.001 0 0 0 0.0005 0 0 0 1.309e-06 
9385 1 0.03 0.001 0.001 0 0 0 0.0005 0 0 0 1.309e-06 
122 1 0.0305 0.0005 0 0 0 0 0.0005 0 0 0 1.309e-06 
123 1 0.0305 0 0.0005 0 0 0 0.0005 0 0 0 1.309e-06 
125 1 0.031 0 0 0 0 0 0.0005 0 0 0 1.309e-06 
128 1 0.031 0.0005 0.0005 0 0 0 0.0005 0 0 0 1.309e-06 
627 1 0.0305 0.001 0.0005 0 0 0 0.0005 0 0 0 1.309e-06 
629 1 0.031 0.001 0 0 0 0 0.0005 0 0 0 1.309e-06 
9134 1 0.0305 0.0005 0.001 0 0 0 0.0005 0 0 0 1.309e-06 
9135 1 0.031 0 0.001 0 0 0 0.0005 0 0 0 1.309e-06 
9387 1 0.031 0.001 0.001 0 0 0 0.0005 0 0 0 1.309e-06 
126 1 0.0315 0.0005 0 0 0 0 0.0005 0 0 0 1.309e-06 
127 1 0.0315 0 0.0005 0 0 0 0.0005 0 0 0 1.309e-06 
129 1 0.032 0 0 0 0 0 0.0005 0 0 0 1.309e-06 
130 1 0.0325 0.0005 0 0 0 0 0.0005 0 0 0 1.309e-06 
131 1 0.0325 0 0.0005 0 0 0 0.0005 0 0 0 1.309e-06 
132 1 0.032 0.0005 0.0005 0 0 0 0.0005 0 0 0 1.309e-06 
631 1 0.0315 0.001 0.0005 0 0 0 0.0005 0 0 0 1.309e-06 
633 1 0.032 0.001 0 0 0 0 0.0005 0 0 0 1.309e-06 
635 1 0.0325 0.001 0.0005 0 0 0 0.0005 0 0 0 1.309e-06 
9136 1 0.0315 0.0005 0.001 0 0 0 0.0005 0 0 0 1.309e-06 
9137 1 0.032 0 0.001 0 0 0 0.0005 0 0 0 1.309e-06 
9138 1 0.0325 0.0005 0.001 0 0 0 0.0005 0 0 0 1.309e-06 
9389 1 0.032 0.001 0.001 0 0 0 0.0005 0 0 0 1.309e-06 
133 1 0.033 0 0 0 0 0 0.0005 0 0 0 1.309e-06 
134 1 0.0335 0.0005 0 0 0 0 0.0005 0 0 0 1.309e-06 
135 1 0.0335 0 0.0005 0 0 0 0.0005 0 0 0 1.309e-06 
136 1 0.033 0.0005 0.0005 0 0 0 0.0005 0 0 0 1.309e-06 
637 1 0.033 0.001 0 0 0 0 0.0005 0 0 0 1.309e-06 
639 1 0.0335 0.001 0.0005 0 0 0 0.0005 0 0 0 1.309e-06 
9139 1 0.033 0 0.001 0 0 0 0.0005 0 0 0 1.309e-06 
9140 1 0.0335 0.0005 0.001 0 0 0 0.0005 0 0 0 1.309e-06 
9391 1 0.033 0.001 0.001 0 0 0 0.0005 0 0 0 1.309e-06 
137 1 0.034 0 0 0 0 0 0.0005 0 0 0 1.309e-06 
138 1 0.0345 0.0005 0 0 0 0 0.0005 0 0 0 1.309e-06 
139 1 0.0345 0 0.0005 0 0 0 0.0005 0 0 0 1.309e-06 
140 1 0.034 0.0005 0.0005 0 0 0 0.0005 0 0 0 1.309e-06 
641 1 0.034 0.001 0 0 0 0 0.0005 0 0 0 1.309e-06 
643 1 0.0345 0.001 0.0005 0 0 0 0.0005 0 0 0 1.309e-06 
9141 1 0.034 0 0.001 0 0 0 0.0005 0 0 0 1.309e-06 
9142 1 0.0345 0.0005 0.001 0 0 0 0.0005 0 0 0 1.309e-06 
9393 1 0.034 0.001 0.001 0 0 0 0.0005 0 0 0 1.309e-06 
141 1 0.035 0 0 0 0 0 0.0005 0 0 0 1.309e-06 
142 1 0.0355 0.0005 0 0 0 0 0.0005 0 0 0 1.309e-06 
143 1 0.0355 0 0.0005 0 0 0 0.0005 0 0 0 1.309e-06 
144 1 0.035 0.0005 0.0005 0 0 0 0.0005 0 0 0 1.309e-06 
645 1 0.035 0.001 0 0 0 0 0.0005 0 0 0 1.309e-06 
647 1 0.0355 0.001 0.0005 0 0 0 0.0005 0 0 0 1.309e-06 
9143 1 0.035 0 0.001 0 0 0 0.0005 0 0 0 1.309e-06 
9144 1 0.0355 0.0005 0.001 0 0 0 0.0005 0 0 0 1.309e-06 
9395 1 0.035 0.001 0.001 0 0 0 0.0005 0 0 0 1.309e-06 
145 1 0.036 0 0 0 0 0 0.0005 0 0 0 1.309e-06 
146 1 0.0365 0.0005 0 0 0 0 0.0005 0 0 0 1.309e-06 
147 1 0.0365 0 0.0005 0 0 0 0.0005 0 0 0 1.309e-06 
148 1 0.036 0.0005 0.0005 0 0 0 0.0005 0 0 0 1.309e-06 
649 1 0.036 0.001 0 0 0 0 0.0005 0 0 0 1.309e-06 
651 1 0.0365 0.001 0.0005 0 0 0 0.0005 0 0 0 1.309e-06 
9145 1 0.036 0 0.001 0 0 0 0.0005 0 0 0 1.309e-06 
9146 1 0.0365 0.0005 0.001 0 0 0 0.0005 0 0 0 1.309e-06 
9397 1 0.036 0.001 0.001 0 0 0 0.0005 0 0 0 1.309e-06 
149 1 0.037 0 0 0 0 0 0.0005 0 0 0 1.309e-06 
150 1 0.0375 0.0005 0 0 0 0 0.0005 0 0 0 1.309e-06 
151 1 0.0375 0 0.0005 0 0 0 0.0005 0 0 0 1.309e-06 
152 1 0.037 0.0005 0.0005 0 0 0 0.0005 0 0 0 1.309e-06 
653 1 0.037 0.001 0 0 0 0 0.0005 0 0 0 1.309e-06 
655 1 0.0375 0.001 0.0005 0 0 0 0.0005 0 0 0 1.309e-06 
9147 1 0.037 0 0.001 0 0 0 0.0005 0 0 0 1.309e-06 
9148 1 0.0375 0.0005 0.001 0 0 0 0.0005 0 0 0 1.309e-06 
9399 1 0.037 0.001 0.001 0 0 0 0.0005 0 0 0 1.309e-06 
153 1 0.038 0 0 0 0 0 0.0005 0 0 0 1.309e-06 
154 1 0.0385 0.0005 0 0 0 0 0.0005 0 0 0 1.309e-06 
155 1 0.0385 0 0.0005 0 0 0 0.0005 0 0 0 1.309e-06 
156 1 0.038 0.0005 0.0005 0 0 0 0.0005 0 0 0 1.309e-06 
657 1 0.038 0.001 0 0 0 0 0.0005 0 0 0 1.309e-06 
659 1 0.0385 0.001 0.0005 0 0 0 0.0005 0 0 0 1.309e-06 
9149 1 0.038 0 0.001 0 0 0 0.0005 0 0 0 1.309e-06 
9150 1 0.0385 0.0005 0.001 0 0 0 0.0005 0 0 0 1.309e-06 
9401 1 0.038 0.001 0.001 0 0 0 0.0005 0 0 0 1.309e-06 
157 1 0.039 0 0 0 0 0 0.0005 0 0 0 1.309e-06 
158 1 0.0395 0.0005 0 0 0 0 0.0005 0 0 0 1.309e-06 
159 1 0.0395 0 0.0005 0 0 0 0.0005 0 0 0 1.309e-06 
160 1 0.039 0.0005 0.0005 0 0 0 0.0005 0 0 0 1.309e-06 
661 1 0.039 0.001 0 0 0 0 0.0005 0 0 0 1.309e-06 
663 1 0.0395 0.001 0.0005 0 0 0 0.0005 0 0 0 1.309e-06 
9151 1 0.039 0 0.001 0 0 0 0.0005 0 0 0 1.309e-06 
9152 1 0.0395 0.0005 0.001 0 0 0 0.0005 0 0 0 1.309e-06 
9403 1 0.039 0.001 0.001 0 0 0 0.0005 0 0 0 1.309e-06 
161 1 0.04 0 0 0 0 0 0.0005 0 0 0 1.309e-06 
162 1 0.0405 0.0005 0 0 0 0 0.0005 0 0 0 1.309e-06 
163 1 0.0405 0 0.0005 0 0 0 0.0005 0 0 0 1.309e-06 
164 1 0.04 0.0005 0.0005 0 0 0 0.0005 0 0 0 1.309e-06 
665 1 0.04 0.001 0 0 0 0 0.0005 0 0 0 1.309e-06 
667 1 0.0405 0.001 0.0005 0 0 0 0.0005 0 0 0 1.309e-06 
9153 1 0.04 0 0.001 0 0 0 0.0005 0 0 0 1.309e-06 
9154 1 0.0405 0.0005 0.001 0 0 0 0.0005 0 0 0 1.309e-06 
9405 1 0.04 0.001 0.001 0 0 0 0.0005 0 0 0 1.309e-06 
165 1 0.041 0 0 0 0 0 0.0005 0 0 0 1.309e-06 
166 1 0.0415 0.0005 0 0 0 0 0.0005 0 0 0 1.309e-06 
167 1 0.0415 0 0.0005 0 0 0 0.0005 0 0 0 1.309e-06 
168 1 0.041 0.0005 0.0005 0 0 0 0.0005 0 0 0 1.309e-06 
669 1 0.041 0.001 0 0 0 0 0.0005 0 0 0 1.309e-06 
671 1 0.0415 0.001 0.0005 0 0 0 0.0005 0 0 0 1.309e-06 
9155 1 0.041 0 0.001 0 0 0 0.0005 0 0 0 1.309e-06 
9156 1 0.0415 0.0005 0.001 0 0 0 0.0005 0 0 0 1.309e-06 
9407 1 0.041 0.001 0.001 0 0 0 0.0005 0 0 0 1.309e-06 
169 1 0.042 0 0 0 0 0 0.0005 0 0 0 1.309e-06 
170 1 0.0425 0.0005 0 0 0 0 0.0005 0 0 0 1.309e-06 
171 1 0.0425 0 0.0005 0 0 0 0.0005 0 0 0 1.309e-06 
172 1 0.042 0.0005 0.0005 0 0 0 0.0005 0 0 0 1.309e-06 
173 1 0.043 0 0 0 0 0 0.0005 0 0 0 1.309e-06 
176 1 0.043 0.0005 0.0005 0 0 0 0.0005 0 0 0 1.309e-06 
673 1 0.042 0.001 0 0 0 0 0.0005 0 0 0 1.309e-06 
675 1 0.0425 0.001 0.0005 0 0 0 0.0005 0 0 0 1.309e-06 
677 1 0.043 0.001 0 0 0 0 0.0005 0 0 0 1.309e-06 
9157 1 0.042 0 0.001 0 0 0 0.0005 0 0 0 1.309e-06 
9158 1 0.0425 0.0005 0.001 0 0 0 0.0005 0 0 0 1.309e-06 
9159 1 0.043 0 0.001 0 0 0 0.0005 0 0 0 1.309e-06 
9409 1 0.042 0.001 0.001 0 0 0 0.0005 0 0 0 1.309e-06 
9411 1 0.043 0.001 0.001 0 0 0 0.0005 0 0 0 1.309e-06 
174 1 0.0435 0.0005 0 0 0 0 0.0005 0 0 0 1.309e-06 
175 1 0.0435 0 0.0005 0 0 0 0.0005 0 0 0 1.309e-06 
177 1 0.044 0 0 0 0 0 0.0005 0 0 0 1.309e-06 
180 1 0.044 0.0005 0.0005 0 0 0 0.0005 0 0 0 1.309e-06 
679 1 0.0435 0.001 0.0005 0 0 0 0.0005 0 0 0 1.309e-06 
681 1 0.044 0.001 0 0 0 0 0.0005 0 0 0 1.309e-06 
9160 1 0.0435 0.0005 0.001 0 0 0 0.0005 0 0 0 1.309e-06 
9161 1 0.044 0 0.001 0 0 0 0.0005 0 0 0 1.309e-06 
9413 1 0.044 0.001 0.001 0 0 0 0.0005 0 0 0 1.309e-06 
178 1 0.0445 0.0005 0 0 0 0 0.0005 0 0 0 1.309e-06 
179 1 0.0445 0 0.0005 0 0 0 0.0005 0 0 0 1.309e-06 
181 1 0.045 0 0 0 0 0 0.0005 0 0 0 1.309e-06 
184 1 0.045 0.0005 0.0005 0 0 0 0.0005 0 0 0 1.309e-06 
683 1 0.0445 0.001 0.0005 0 0 0 0.0005 0 0 0 1.309e-06 
685 1 0.045 0.001 0 0 0 0 0.0005 0 0 0 1.309e-06 
9162 1 0.0445 0.0005 0.001 0 0 0 0.0005 0 0 0 1.309e-06 
9163 1 0.045 0 0.001 0 0 0 0.0005 0 0 0 1.309e-06 
9415 1 0.045 0.001 0.001 0 0 0 0.0005 0 0 0 1.309e-06 
182 1 0.0455 0.0005 0 0 0 0 0.0005 0 0 0 1.309e-06 
183 1 0.0455 0 0.0005 0 0 0 0.0005 0 0 0 1.309e-06 
185 1 0.046 0 0 0 0 0 0.0005 0 0 0 1.309e-06 
188 1 0.046 0.0005 0.0005 0 0 0 0.0005 0 0 0 1.309e-06 
687 1 0.0455 0.001 0.0005 0 0 0 0.0005 0 0 0 1.309e-06 
689 1 0.046 0.001 0 0 0 0 0.0005 0 0 0 1.309e-06 
9164 1 0.0455 0.0005 0.001 0 0 0 0.0005 0 0 0 1.309e-06 
9165 1 0.046 0 0.001 0 0 0 0.0005 0 0 0 1.309e-06 
9417 1 0.046 0.001 0.001 0 0 0 0.0005 0 0 0 1.309e-06 
186 1 0.0465 0.0005 0 0 0 0 0.0005 0 0 0 1.309e-06 
187 1 0.0465 0 0.0005 0 0 0 0.0005 0 0 0 1.309e-06 
189 1 0.047 0 0 0 0 0 0.0005 0 0 0 1.309e-06 
192 1 0.047 0.0005 0.0005 0 0 0 0.0005 0 0 0 1.309e-06 
691 1 0.0465 0.001 0.0005 0 0 0 0.0005 0 0 0 1.309e-06 
693 1 0.047 0.001 0 0 0 0 0.0005 0 0 0 1.309e-06 
9166 1 0.0465 0.0005 0.001 0 0 0 0.0005 0 0 0 1.309e-06 
9167 1 0.047 0 0.001 0 0 0 0.0005 0 0 0 1.309e-06 
9419 1 0.047 0.001 0.001 0 0 0 0.0005 0 0 0 1.309e-06 
190 1 0.0475 0.0005 0 0 0 0 0.0005 0 0 0 1.309e-06 
191 1 0.0475 0 0.0005 0 0 0 0.0005 0 0 0 1.309e-06 
193 1 0.048 0 0 0 0 0 0.0005 0 0 0 1.309e-06 
196 1 0.048 0.0005 0.0005 0 0 0 0.0005 0 0 0 1.309e-06 
695 1 0.0475 0.001 0.0005 0 0 0 0.0005 0 0 0 1.309e-06 
697 1 0.048 0.001 0 0 0 0 0.0005 0 0 0 1.309e-06 
9168 1 0.0475 0.0005 0.001 0 0 0 0.0005 0 0 0 1.309e-06 
9169 1 0.048 0 0.001 0 0 0 0.0005 0 0 0 1.309e-06 
9421 1 0.048 0.001 0.001 0 0 0 0.0005 0 0 0 1.309e-06 
194 1 0.0485 0.0005 0 0 0 0 0.0005 0 0 0 1.309e-06 
195 1 0.0485 0 0.0005 0 0 0 0.0005 0 0 0 1.309e-06 
197 1 0.049 0 0 0 0 0 0.0005 0 0 0 1.309e-06 
200 1 0.049 0.0005 0.0005 0 0 0 0.0005 0 0 0 1.309e-06 
699 1 0.0485 0.001 0.0005 0 0 0 0.0005 0 0 0 1.309e-06 
701 1 0.049 0.001 0 0 0 0 0.0005 0 0 0 1.309e-06 
9170 1 0.0485 0.0005 0.001 0 0 0 0.0005 0 0 0 1.309e-06 
9171 1 0.049 0 0.001 0 0 0 0.0005 0 0 0 1.309e-06 
9423 1 0.049 0.001 0.001 0 0 0 0.0005 0 0 0 1.309e-06 
198 1 0.0495 0.0005 0 0 0 0 0.0005 0 0 0 1.309e-06 
199 1 0.0495 0 0.0005 0 0 0 0.0005 0 0 0 1.309e-06 
201 1 0.05 0 0 0 0 0 0.0005 0 0 0 1.309e-06 
204 1 0.05 0.0005 0.0005 0 0 0 0.0005 0 0 0 1.309e-06 
703 1 0.0495 0.001 0.0005 0 0 0 0.0005 0 0 0 1.309e-06 
705 1 0.05 0.001 0 0 0 0 0.0005 0 0 0 1.309e-06 
9172 1 0.0495 0.0005 0.001 0 0 0 0.0005 0 0 0 1.309e-06 
9173 1 0.05 0 0.001 0 0 0 0.0005 0 0 0 1.309e-06 
9425 1 0.05 0.001 0.001 0 0 0 0.0005 0 0 0 1.309e-06 
202 1 0.0505 0.0005 0 0 0 0 0.0005 0 0 0 1.309e-06 
203 1 0.0505 0 0.0005 0 0 0 0.0005 0 0 0 1.309e-06 
205 1 0.051 0 0 0 0 0 0.0005 0 0 0 1.309e-06 
208 1 0.051 0.0005 0.0005 0 0 0 0.0005 0 0 0 1.309e-06 
707 1 0.0505 0.001 0.0005 0 0 0 0.0005 0 0 0 1.309e-06 
709 1 0.051 0.001 0 0 0 0 0.0005 0 0 0 1.309e-06 
9174 1 0.0505 0.0005 0.001 0 0 0 0.0005 0 0 0 1.309e-06 
9175 1 0.051 0 0.001 0 0 0 0.0005 0 0 0 1.309e-06 
9427 1 0.051 0.001 0.001 0 0 0 0.0005 0 0 0 1.309e-06 
206 1 0.0515 0.0005 0 0 0 0 0.0005 0 0 0 1.309e-06 
207 1 0.0515 0 0.0005 0 0 0 0.0005 0 0 0 1.309e-06 
209 1 0.052 0 0 0 0 0 0.0005 0 0 0 1.309e-06 
212 1 0.052 0.0005 0.0005 0 0 0 0.0005 0 0 0 1.309e-06 
711 1 0.0515 0.001 0.0005 0 0 0 0.0005 0 0 0 1.309e-06 
713 1 0.052 0.001 0 0 0 0 0.0005 0 0 0 1.309e-06 
9176 1 0.0515 0.0005 0.001 0 0 0 0.0005 0 0 0 1.309e-06 
9177 1 0.052 0 0.001 0 0 0 0.0005 0 0 0 1.309e-06 
9429 1 0.052 0.001 0.001 0 0 0 0.0005 0 0 0 1.309e-06 
210 1 0.0525 0.0005 0 0 0 0 0.0005 0 0 0 1.309e-06 
211 1 0.0525 0 0.0005 0 0 0 0.0005 0 0 0 1.309e-06 
213 1 0.053 0 0 0 0 0 0.0005 0 0 0 1.309e-06 
214 1 0.0535 0.0005 0 0 0 0 0.0005 0 0 0 1.309e-06 
215 1 0.0535 0 0.0005 0 0 0 0.0005 0 0 0 1.309e-06 
216 1 0.053 0.0005 0.0005 0 0 0 0.0005 0 0 0 1.309e-06 
715 1 0.0525 0.001 0.0005 0 0 0 0.0005 0 0 0 1.309e-06 
717 1 0.053 0.001 0 0 0 0 0.0005 0 0 0 1.309e-06 
719 1 0.0535 0.001 0.0005 0 0 0 0.0005 0 0 0 1.309e-06 
9178 1 0.0525 0.0005 0.001 0 0 0 0.0005 0 0 0 1.309e-06 
9179 1 0.053 0 0.001 0 0 0 0.0005 0 0 0 1.309e-06 
9180 1 0.0535 0.0005 0.001 0 0 0 0.0005 0 0 0 1.309e-06 
9431 1 0.053 0.001 0.001 0 0 0 0.0005 0 0 0 1.309e-06 
217 1 0.054 0 0 0 0 0 0.0005 0 0 0 1.309e-06 
218 1 0.0545 0.0005 0 0 0 0 0.0005 0 0 0 1.309e-06 
219 1 0.0545 0 0.0005 0 0 0 0.0005 0 0 0 1.309e-06 
220 1 0.054 0.0005 0.0005 0 0 0 0.0005 0 0 0 1.309e-06 
721 1 0.054 0.001 0 0 0 0 0.0005 0 0 0 1.309e-06 
723 1 0.0545 0.001 0.0005 0 0 0 0.0005 0 0 0 1.309e-06 
9181 1 0.054 0 0.001 0 0 0 0.0005 0 0 0 1.309e-06 
9182 1 0.0545 0.0005 0.001 0 0 0 0.0005 0 0 0 1.309e-06 
9433 1 0.054 0.001 0.001 0 0 0 0.0005 0 0 0 1.309e-06 
221 1 0.055 0 0 0 0 0 0.0005 0 0 0 1.309e-06 
222 1 0.0555 0.0005 0 0 0 0 0.0005 0 0 0 1.309e-06 
223 1 0.0555 0 0.0005 0 0 0 0.0005 0 0 0 1.309e-06 
224 1 0.055 0.0005 0.0005 0 0 0 0.0005 0 0 0 1.309e-06 
725 1 0.055 0.001 0 0 0 0 0.0005 0 0 0 1.309e-06 
727 1 0.0555 0.001 0.0005 0 0 0 0.0005 0 0 0 1.309e-06 
9183 1 0.055 0 0.001 0 0 0 0.0005 0 0 0 1.309e-06 
9184 1 0.0555 0.0005 0.001 0 0 0 0.0005 0 0 0 1.309e-06 
9435 1 0.055 0.001 0.001 0 0 0 0.0005 0 0 0 1.309e-06 
225 1 0.056 0 0 0 0 0 0.0005 0 0 0 1.309e-06 
226 1 0.0565 0.0005 0 0 0 0 0.0005 0 0 0 1.309e-06 
227 1 0.0565 0 0.0005 0 0 0 0.0005 0 0 0 1.309e-06 
228 1 0.056 0.0005 0.0005 0 0 0 0.0005 0 0 0 1.309e-06 
729 1 0.056 0.001 0 0 0 0 0.0005 0 0 0 1.309e-06 
731 1 0.0565 0.001 0.0005 0 0 0 0.0005 0 0 0 1.309e-06 
9185 1 0.056 0 0.001 0 0 0 0.0005 0 0 0 1.309e-06 
9186 1 0.0565 0.0005 0.001 0 0 0 0.0005 0 0 0 1.309e-06 
9437 1 0.056 0.001 0.001 0 0 0 0.0005 0 0 0 1.309e-06 
229 1 0.057 0 0 0 0 0 0.0005 0 0 0 1.309e-06 
230 1 0.0575 0.0005 0 0 0 0 0.0005 0 0 0 1.309e-06 
231 1 0.0575 0 0.0005 0 0 0 0.0005 0 0 0 1.309e-06 
232 1 0.057 0.0005 0.0005 0 0 0 0.0005 0 0 0 1.309e-06 
733 1 0.057 0.001 0 0 0 0 0.0005 0 0 0 1.309e-06 
735 1 0.0575 0.001 0.0005 0 0 0 0.0005 0 0 0 1.309e-06 
9187 1 0.057 0 0.001 0 0 0 0.0005 0 0 0 1.309e-06 
9188 1 0.0575 0.0005 0.001 0 0 0 0.0005 0 0 0 1.309e-06 
9439 1 0.057 0.001 0.001 0 0 0 0.0005 0 0 0 1.309e-06 
233 1 0.058 0 0 0 0 0 0.0005 0 0 0 1.309e-06 
234 1 0.0585 0.0005 0 0 0 0 0.0005 0 0 0 1.309e-06 
235 1 0.0585 0 0.0005 0 0 0 0.0005 0 0 0 1.309e-06 
236 1 0.058 0.0005 0.0005 0 0 0 0.0005 0 0 0 1.309e-06 
737 1 0.058 0.001 0 0 0 0 0.0005 0 0 0 1.309e-06 
739 1 0.0585 0.001 0.0005 0 0 0 0.0005 0 0 0 1.309e-06 
9189 1 0.058 0 0.001 0 0 0 0.0005 0 0 0 1.309e-06 
9190 1 0.0585 0.0005 0.001 0 0 0 0.0005 0 0 0 1.309e-06 
9441 1 0.058 0.001 0.001 0 0 0 0.0005 0 0 0 1.309e-06 
237 1 0.059 0 0 0 0 0 0.0005 0 0 0 1.309e-06 
238 1 0.0595 0.0005 0 0 0 0 0.0005 0 0 0 1.309e-06 
239 1 0.0595 0 0.0005 0 0 0 0.0005 0 0 0 1.309e-06 
240 1 0.059 0.0005 0.0005 0 0 0 0.0005 0 0 0 1.309e-06 
741 1 0.059 0.001 0 0 0 0 0.0005 0 0 0 1.309e-06 
743 1 0.0595 0.001 0.0005 0 0 0 0.0005 0 0 0 1.309e-06 
9191 1 0.059 0 0.001 0 0 0 0.0005 0 0 0 1.309e-06 
9192 1 0.0595 0.0005 0.001 0 0 0 0.0005 0 0 0 1.309e-06 
9443 1 0.059 0.001 0.001 0 0 0 0.0005 0 0 0 1.309e-06 
241 1 0.06 0 0 0 0 0 0.0005 0 0 0 1.309e-06 
242 1 0.0605 0.0005 0 0 0 0 0.0005 0 0 0 1.309e-06 
243 1 0.0605 0 0.0005 0 0 0 0.0005 0 0 0 1.309e-06 
244 1 0.06 0.0005 0.0005 0 0 0 0.0005 0 0 0 1.309e-06 
745 1 0.06 0.001 0 0 0 0 0.0005 0 0 0 1.309e-06 
747 1 0.0605 0.001 0.0005 0 0 0 0.0005 0 0 0 1.309e-06 
9193 1 0.06 0 0.001 0 0 0 0.0005 0 0 0 1.309e-06 
9194 1 0.0605 0.0005 0.001 0 0 0 0.0005 0 0 0 1.309e-06 
9445 1 0.06 0.001 0.001 0 0 0 0.0005 0 0 0 1.309e-06 
245 1 0.061 0 0 0 0 0 0.0005 0 0 0 1.309e-06 
246 1 0.0615 0.0005 0 0 0 0 0.0005 0 0 0 1.309e-06 
247 1 0.0615 0 0.0005 0 0 0 0.0005 0 0 0 1.309e-06 
248 1 0.061 0.0005 0.0005 0 0 0 0.0005 0 0 0 1.309e-06 
749 1 0.061 0.001 0 0 0 0 0.0005 0 0 0 1.309e-06 
751 1 0.0615 0.001 0.0005 0 0 0 0.0005 0 0 0 1.309e-06 
9195 1 0.061 0 0.001 0 0 0 0.0005 0 0 0 1.309e-06 
9196 1 0.0615 0.0005 0.001 0 0 0 0.0005 0 0 0 1.309e-06 
9447 1 0.061 0.001 0.001 0 0 0 0.0005 0 0 0 1.309e-06 
249 1 0.062 0 0 0 0 0 0.0005 0 0 0 1.309e-06 
250 1 0.0625 0.0005 0 0 0 0 0.0005 0 0 0 1.309e-06 
251 1 0.0625 0 0.0005 0 0 0 0.0005 0 0 0 1.309e-06 
252 1 0.062 0.0005 0.0005 0 0 0 0.0005 0 0 0 1.309e-06 
753 1 0.062 0.001 0 0 0 0 0.0005 0 0 0 1.309e-06 
755 1 0.0625 0.001 0.0005 0 0 0 0.0005 0 0 0 1.309e-06 
9197 1 0.062 0 0.001 0 0 0 0.0005 0 0 0 1.309e-06 
9198 1 0.0625 0.0005 0.001 0 0 0 0.0005 0 0 0 1.309e-06 
9449 1 0.062 0.001 0.001 0 0 0 0.0005 0 0 0 1.309e-06 
253 1 0.063 0 0 0 0 0 0.0005 0 0 0 1.309e-06 