ITEM: TIMESTEP
370000
ITEM: NUMBER OF ATOMS
25672
ITEM: BOX BOUNDS ff ff ff
0 0.126
0 0.018
0 0.15
ITEM: ATOMS id type x y z vx vy vz radius fx fy fz mass 
1 1 0 0 0 0 0 0 0.0005 0 0 0 1.309e-06 
2 1 0.0005 0.0005 0 0 0 0 0.0005 0 0 0 1.309e-06 
3 1 0.0005 0 0.0005 0 0 0 0.0005 0 0 0 1.309e-06 
4 1 0 0.0005 0.0005 0 0 0 0.0005 0 0 0 1.309e-06 
5 1 0.001 0 0 0 0 0 0.0005 0 0 0 1.309e-06 
8 1 0.001 0.0005 0.0005 0 0 0 0.0005 0 0 0 1.309e-06 
127 1 0 0.001 0 0 0 0 0.0005 0 0 0 1.309e-06 
129 1 0.0005 0.001 0.0005 0 0 0 0.0005 0 0 0 1.309e-06 
131 1 0.001 0.001 0 0 0 0 0.0005 0 0 0 1.309e-06 
2269 1 0 0 0.001 0 0 0 0.0005 0 0 0 1.309e-06 
2270 1 0.0005 0.0005 0.001 0 0 0 0.0005 0 0 0 1.309e-06 
2271 1 0.001 0 0.001 0 0 0 0.0005 0 0 0 1.309e-06 
2332 1 0 0.001 0.001 0 0 0 0.0005 0 0 0 1.309e-06 
2334 1 0.001 0.001 0.001 0 0 0 0.0005 0 0 0 1.309e-06 
6 1 0.0015 0.0005 0 0 0 0 0.0005 0 0 0 1.309e-06 
7 1 0.0015 0 0.0005 0 0 0 0.0005 0 0 0 1.309e-06 
9 1 0.002 0 0 0 0 0 0.0005 0 0 0 1.309e-06 
12 1 0.002 0.0005 0.0005 0 0 0 0.0005 0 0 0 1.309e-06 
133 1 0.0015 0.001 0.0005 0 0 0 0.0005 0 0 0 1.309e-06 
135 1 0.002 0.001 0 0 0 0 0.0005 0 0 0 1.309e-06 
2272 1 0.0015 0.0005 0.001 0 0 0 0.0005 0 0 0 1.309e-06 
2273 1 0.002 0 0.001 0 0 0 0.0005 0 0 0 1.309e-06 
2336 1 0.002 0.001 0.001 0 0 0 0.0005 0 0 0 1.309e-06 
10 1 0.0025 0.0005 0 0 0 0 0.0005 0 0 0 1.309e-06 
11 1 0.0025 0 0.0005 0 0 0 0.0005 0 0 0 1.309e-06 
13 1 0.003 0 0 0 0 0 0.0005 0 0 0 1.309e-06 
16 1 0.003 0.0005 0.0005 0 0 0 0.0005 0 0 0 1.309e-06 
137 1 0.0025 0.001 0.0005 0 0 0 0.0005 0 0 0 1.309e-06 
139 1 0.003 0.001 0 0 0 0 0.0005 0 0 0 1.309e-06 
2274 1 0.0025 0.0005 0.001 0 0 0 0.0005 0 0 0 1.309e-06 
2275 1 0.003 0 0.001 0 0 0 0.0005 0 0 0 1.309e-06 
2338 1 0.003 0.001 0.001 0 0 0 0.0005 0 0 0 1.309e-06 
14 1 0.0035 0.0005 0 0 0 0 0.0005 0 0 0 1.309e-06 
15 1 0.0035 0 0.0005 0 0 0 0.0005 0 0 0 1.309e-06 
17 1 0.004 0 0 0 0 0 0.0005 0 0 0 1.309e-06 
20 1 0.004 0.0005 0.0005 0 0 0 0.0005 0 0 0 1.309e-06 
141 1 0.0035 0.001 0.0005 0 0 0 0.0005 0 0 0 1.309e-06 
143 1 0.004 0.001 0 0 0 0 0.0005 0 0 0 1.309e-06 
2276 1 0.0035 0.0005 0.001 0 0 0 0.0005 0 0 0 1.309e-06 
2277 1 0.004 0 0.001 0 0 0 0.0005 0 0 0 1.309e-06 
2340 1 0.004 0.001 0.001 0 0 0 0.0005 0 0 0 1.309e-06 
18 1 0.0045 0.0005 0 0 0 0 0.0005 0 0 0 1.309e-06 
19 1 0.0045 0 0.0005 0 0 0 0.0005 0 0 0 1.309e-06 
21 1 0.005 0 0 0 0 0 0.0005 0 0 0 1.309e-06 
24 1 0.005 0.0005 0.0005 0 0 0 0.0005 0 0 0 1.309e-06 
145 1 0.0045 0.001 0.0005 0 0 0 0.0005 0 0 0 1.309e-06 
147 1 0.005 0.001 0 0 0 0 0.0005 0 0 0 1.309e-06 
2278 1 0.0045 0.0005 0.001 0 0 0 0.0005 0 0 0 1.309e-06 
2279 1 0.005 0 0.001 0 0 0 0.0005 0 0 0 1.309e-06 
2342 1 0.005 0.001 0.001 0 0 0 0.0005 0 0 0 1.309e-06 
22 1 0.0055 0.0005 0 0 0 0 0.0005 0 0 0 1.309e-06 
23 1 0.0055 0 0.0005 0 0 0 0.0005 0 0 0 1.309e-06 
25 1 0.006 0 0 0 0 0 0.0005 0 0 0 1.309e-06 
28 1 0.006 0.0005 0.0005 0 0 0 0.0005 0 0 0 1.309e-06 
149 1 0.0055 0.001 0.0005 0 0 0 0.0005 0 0 0 1.309e-06 
151 1 0.006 0.001 0 0 0 0 0.0005 0 0 0 1.309e-06 
2280 1 0.0055 0.0005 0.001 0 0 0 0.0005 0 0 0 1.309e-06 
2281 1 0.006 0 0.001 0 0 0 0.0005 0 0 0 1.309e-06 
2344 1 0.006 0.001 0.001 0 0 0 0.0005 0 0 0 1.309e-06 
26 1 0.0065 0.0005 0 0 0 0 0.0005 0 0 0 1.309e-06 
27 1 0.0065 0 0.0005 0 0 0 0.0005 0 0 0 1.309e-06 
29 1 0.007 0 0 0 0 0 0.0005 0 0 0 1.309e-06 
32 1 0.007 0.0005 0.0005 0 0 0 0.0005 0 0 0 1.309e-06 
153 1 0.0065 0.001 0.0005 0 0 0 0.0005 0 0 0 1.309e-06 
155 1 0.007 0.001 0 0 0 0 0.0005 0 0 0 1.309e-06 
2282 1 0.0065 0.0005 0.001 0 0 0 0.0005 0 0 0 1.309e-06 
2283 1 0.007 0 0.001 0 0 0 0.0005 0 0 0 1.309e-06 
2346 1 0.007 0.001 0.001 0 0 0 0.0005 0 0 0 1.309e-06 
30 1 0.0075 0.0005 0 0 0 0 0.0005 0 0 0 1.309e-06 
31 1 0.0075 0 0.0005 0 0 0 0.0005 0 0 0 1.309e-06 
33 1 0.008 0 0 0 0 0 0.0005 0 0 0 1.309e-06 
36 1 0.008 0.0005 0.0005 0 0 0 0.0005 0 0 0 1.309e-06 
157 1 0.0075 0.001 0.0005 0 0 0 0.0005 0 0 0 1.309e-06 
159 1 0.008 0.001 0 0 0 0 0.0005 0 0 0 1.309e-06 
2284 1 0.0075 0.0005 0.001 0 0 0 0.0005 0 0 0 1.309e-06 
2285 1 0.008 0 0.001 0 0 0 0.0005 0 0 0 1.309e-06 
2348 1 0.008 0.001 0.001 0 0 0 0.0005 0 0 0 1.309e-06 
34 1 0.0085 0.0005 0 0 0 0 0.0005 0 0 0 1.309e-06 
35 1 0.0085 0 0.0005 0 0 0 0.0005 0 0 0 1.309e-06 
37 1 0.009 0 0 0 0 0 0.0005 0 0 0 1.309e-06 
40 1 0.009 0.0005 0.0005 0 0 0 0.0005 0 0 0 1.309e-06 
161 1 0.0085 0.001 0.0005 0 0 0 0.0005 0 0 0 1.309e-06 
163 1 0.009 0.001 0 0 0 0 0.0005 0 0 0 1.309e-06 
2286 1 0.0085 0.0005 0.001 0 0 0 0.0005 0 0 0 1.309e-06 
2287 1 0.009 0 0.001 0 0 0 0.0005 0 0 0 1.309e-06 
2350 1 0.009 0.001 0.001 0 0 0 0.0005 0 0 0 1.309e-06 
38 1 0.0095 0.0005 0 0 0 0 0.0005 0 0 0 1.309e-06 
39 1 0.0095 0 0.0005 0 0 0 0.0005 0 0 0 1.309e-06 
41 1 0.01 0 0 0 0 0 0.0005 0 0 0 1.309e-06 
44 1 0.01 0.0005 0.0005 0 0 0 0.0005 0 0 0 1.309e-06 
165 1 0.0095 0.001 0.0005 0 0 0 0.0005 0 0 0 1.309e-06 
167 1 0.01 0.001 0 0 0 0 0.0005 0 0 0 1.309e-06 
2288 1 0.0095 0.0005 0.001 0 0 0 0.0005 0 0 0 1.309e-06 
2289 1 0.01 0 0.001 0 0 0 0.0005 0 0 0 1.309e-06 
2352 1 0.01 0.001 0.001 0 0 0 0.0005 0 0 0 1.309e-06 
42 1 0.0105 0.0005 0 0 0 0 0.0005 0 0 0 1.309e-06 
43 1 0.0105 0 0.0005 0 0 0 0.0005 0 0 0 1.309e-06 
45 1 0.011 0 0 0 0 0 0.0005 0 0 0 1.309e-06 
46 1 0.0115 0.0005 0 0 0 0 0.0005 0 0 0 1.309e-06 
47 1 0.0115 0 0.0005 0 0 0 0.0005 0 0 0 1.309e-06 
48 1 0.011 0.0005 0.0005 0 0 0 0.0005 0 0 0 1.309e-06 
169 1 0.0105 0.001 0.0005 0 0 0 0.0005 0 0 0 1.309e-06 
171 1 0.011 0.001 0 0 0 0 0.0005 0 0 0 1.309e-06 
173 1 0.0115 0.001 0.0005 0 0 0 0.0005 0 0 0 1.309e-06 
2290 1 0.0105 0.0005 0.001 0 0 0 0.0005 0 0 0 1.309e-06 
2291 1 0.011 0 0.001 0 0 0 0.0005 0 0 0 1.309e-06 
2292 1 0.0115 0.0005 0.001 0 0 0 0.0005 0 0 0 1.309e-06 
2354 1 0.011 0.001 0.001 0 0 0 0.0005 0 0 0 1.309e-06 
49 1 0.012 0 0 0 0 0 0.0005 0 0 0 1.309e-06 
50 1 0.0125 0.0005 0 0 0 0 0.0005 0 0 0 1.309e-06 
51 1 0.0125 0 0.0005 0 0 0 0.0005 0 0 0 1.309e-06 
52 1 0.012 0.0005 0.0005 0 0 0 0.0005 0 0 0 1.309e-06 
175 1 0.012 0.001 0 0 0 0 0.0005 0 0 0 1.309e-06 
177 1 0.0125 0.001 0.0005 0 0 0 0.0005 0 0 0 1.309e-06 
2293 1 0.012 0 0.001 0 0 0 0.0005 0 0 0 1.309e-06 
2294 1 0.0125 0.0005 0.001 0 0 0 0.0005 0 0 0 1.309e-06 
2356 1 0.012 0.001 0.001 0 0 0 0.0005 0 0 0 1.309e-06 
53 1 0.013 0 0 0 0 0 0.0005 0 0 0 1.309e-06 
54 1 0.0135 0.0005 0 0 0 0 0.0005 0 0 0 1.309e-06 
55 1 0.0135 0 0.0005 0 0 0 0.0005 0 0 0 1.309e-06 
56 1 0.013 0.0005 0.0005 0 0 0 0.0005 0 0 0 1.309e-06 
179 1 0.013 0.001 0 0 0 0 0.0005 0 0 0 1.309e-06 
181 1 0.0135 0.001 0.0005 0 0 0 0.0005 0 0 0 1.309e-06 
2295 1 0.013 0 0.001 0 0 0 0.0005 0 0 0 1.309e-06 
2296 1 0.0135 0.0005 0.001 0 0 0 0.0005 0 0 0 1.309e-06 
2358 1 0.013 0.001 0.001 0 0 0 0.0005 0 0 0 1.309e-06 
57 1 0.014 0 0 0 0 0 0.0005 0 0 0 1.309e-06 
58 1 0.0145 0.0005 0 0 0 0 0.0005 0 0 0 1.309e-06 
59 1 0.0145 0 0.0005 0 0 0 0.0005 0 0 0 1.309e-06 
60 1 0.014 0.0005 0.0005 0 0 0 0.0005 0 0 0 1.309e-06 
183 1 0.014 0.001 0 0 0 0 0.0005 0 0 0 1.309e-06 
185 1 0.0145 0.001 0.0005 0 0 0 0.0005 0 0 0 1.309e-06 
2297 1 0.014 0 0.001 0 0 0 0.0005 0 0 0 1.309e-06 
2298 1 0.0145 0.0005 0.001 0 0 0 0.0005 0 0 0 1.309e-06 
2360 1 0.014 0.001 0.001 0 0 0 0.0005 0 0 0 1.309e-06 
61 1 0.015 0 0 0 0 0 0.0005 0 0 0 1.309e-06 
62 1 0.0155 0.0005 0 0 0 0 0.0005 0 0 0 1.309e-06 
63 1 0.0155 0 0.0005 0 0 0 0.0005 0 0 0 1.309e-06 
64 1 0.015 0.0005 0.0005 0 0 0 0.0005 0 0 0 1.309e-06 
187 1 0.015 0.001 0 0 0 0 0.0005 0 0 0 1.309e-06 
189 1 0.0155 0.001 0.0005 0 0 0 0.0005 0 0 0 1.309e-06 
2299 1 0.015 0 0.001 0 0 0 0.0005 0 0 0 1.309e-06 
2300 1 0.0155 0.0005 0.001 0 0 0 0.0005 0 0 0 1.309e-06 
2362 1 0.015 0.001 0.001 0 0 0 0.0005 0 0 0 1.309e-06 
65 1 0.016 0 0 0 0 0 0.0005 0 0 0 1.309e-06 
66 1 0.0165 0.0005 0 0 0 0 0.0005 0 0 0 1.309e-06 
67 1 0.0165 0 0.0005 0 0 0 0.0005 0 0 0 1.309e-06 
68 1 0.016 0.0005 0.0005 0 0 0 0.0005 0 0 0 1.309e-06 
191 1 0.016 0.001 0 0 0 0 0.0005 0 0 0 1.309e-06 
193 1 0.0165 0.001 0.0005 0 0 0 0.0005 0 0 0 1.309e-06 
2301 1 0.016 0 0.001 0 0 0 0.0005 0 0 0 1.309e-06 
2302 1 0.0165 0.0005 0.001 0 0 0 0.0005 0 0 0 1.309e-06 
2364 1 0.016 0.001 0.001 0 0 0 0.0005 0 0 0 1.309e-06 
69 1 0.017 0 0 0 0 0 0.0005 0 0 0 1.309e-06 
70 1 0.0175 0.0005 0 0 0 0 0.0005 0 0 0 1.309e-06 
71 1 0.0175 0 0.0005 0 0 0 0.0005 0 0 0 1.309e-06 
72 1 0.017 0.0005 0.0005 0 0 0 0.0005 0 0 0 1.309e-06 
195 1 0.017 0.001 0 0 0 0 0.0005 0 0 0 1.309e-06 
197 1 0.0175 0.001 0.0005 0 0 0 0.0005 0 0 0 1.309e-06 
2303 1 0.017 0 0.001 0 0 0 0.0005 0 0 0 1.309e-06 
2304 1 0.0175 0.0005 0.001 0 0 0 0.0005 0 0 0 1.309e-06 
2366 1 0.017 0.001 0.001 0 0 0 0.0005 0 0 0 1.309e-06 
73 1 0.018 0 0 0 0 0 0.0005 0 0 0 1.309e-06 
74 1 0.0185 0.0005 0 0 0 0 0.0005 0 0 0 1.309e-06 
75 1 0.0185 0 0.0005 0 0 0 0.0005 0 0 0 1.309e-06 
76 1 0.018 0.0005 0.0005 0 0 0 0.0005 0 0 0 1.309e-06 
199 1 0.018 0.001 0 0 0 0 0.0005 0 0 0 1.309e-06 
201 1 0.0185 0.001 0.0005 0 0 0 0.0005 0 0 0 1.309e-06 
2305 1 0.018 0 0.001 0 0 0 0.0005 0 0 0 1.309e-06 
2306 1 0.0185 0.0005 0.001 0 0 0 0.0005 0 0 0 1.309e-06 
2368 1 0.018 0.001 0.001 0 0 0 0.0005 0 0 0 1.309e-06 
77 1 0.019 0 0 0 0 0 0.0005 0 0 0 1.309e-06 
78 1 0.0195 0.0005 0 0 0 0 0.0005 0 0 0 1.309e-06 
79 1 0.0195 0 0.0005 0 0 0 0.0005 0 0 0 1.309e-06 
80 1 0.019 0.0005 0.0005 0 0 0 0.0005 0 0 0 1.309e-06 
203 1 0.019 0.001 0 0 0 0 0.0005 0 0 0 1.309e-06 
205 1 0.0195 0.001 0.0005 0 0 0 0.0005 0 0 0 1.309e-06 
2307 1 0.019 0 0.001 0 0 0 0.0005 0 0 0 1.309e-06 
2308 1 0.0195 0.0005 0.001 0 0 0 0.0005 0 0 0 1.309e-06 
2370 1 0.019 0.001 0.001 0 0 0 0.0005 0 0 0 1.309e-06 
81 1 0.02 0 0 0 0 0 0.0005 0 0 0 1.309e-06 
82 1 0.0205 0.0005 0 0 0 0 0.0005 0 0 0 1.309e-06 
83 1 0.0205 0 0.0005 0 0 0 0.0005 0 0 0 1.309e-06 
84 1 0.02 0.0005 0.0005 0 0 0 0.0005 0 0 0 1.309e-06 
207 1 0.02 0.001 0 0 0 0 0.0005 0 0 0 1.309e-06 
209 1 0.0205 0.001 0.0005 0 0 0 0.0005 0 0 0 1.309e-06 
2309 1 0.02 0 0.001 0 0 0 0.0005 0 0 0 1.309e-06 
2310 1 0.0205 0.0005 0.001 0 0 0 0.0005 0 0 0 1.309e-06 
2372 1 0.02 0.001 0.001 0 0 0 0.0005 0 0 0 1.309e-06 
85 1 0.021 0 0 0 0 0 0.0005 0 0 0 1.309e-06 
86 1 0.0215 0.0005 0 0 0 0 0.0005 0 0 0 1.309e-06 
87 1 0.0215 0 0.0005 0 0 0 0.0005 0 0 0 1.309e-06 
88 1 0.021 0.0005 0.0005 0 0 0 0.0005 0 0 0 1.309e-06 
89 1 0.022 0 0 0 0 0 0.0005 0 0 0 1.309e-06 
92 1 0.022 0.0005 0.0005 0 0 0 0.0005 0 0 0 1.309e-06 
211 1 0.021 0.001 0 0 0 0 0.0005 0 0 0 1.309e-06 
213 1 0.0215 0.001 0.0005 0 0 0 0.0005 0 0 0 1.309e-06 
215 1 0.022 0.001 0 0 0 0 0.0005 0 0 0 1.309e-06 
2311 1 0.021 0 0.001 0 0 0 0.0005 0 0 0 1.309e-06 
2312 1 0.0215 0.0005 0.001 0 0 0 0.0005 0 0 0 1.309e-06 
2313 1 0.022 0 0.001 0 0 0 0.0005 0 0 0 1.309e-06 
2374 1 0.021 0.001 0.001 0 0 0 0.0005 0 0 0 1.309e-06 
2376 1 0.022 0.001 0.001 0 0 0 0.0005 0 0 0 1.309e-06 
90 1 0.0225 0.0005 0 0 0 0 0.0005 0 0 0 1.309e-06 
91 1 0.0225 0 0.0005 0 0 0 0.0005 0 0 0 1.309e-06 
93 1 0.023 0 0 0 0 0 0.0005 0 0 0 1.309e-06 
96 1 0.023 0.0005 0.0005 0 0 0 0.0005 0 0 0 1.309e-06 
217 1 0.0225 0.001 0.0005 0 0 0 0.0005 0 0 0 1.309e-06 
219 1 0.023 0.001 0 0 0 0 0.0005 0 0 0 1.309e-06 
2314 1 0.0225 0.0005 0.001 0 0 0 0.0005 0 0 0 1.309e-06 
2315 1 0.023 0 0.001 0 0 0 0.0005 0 0 0 1.309e-06 
2378 1 0.023 0.001 0.001 0 0 0 0.0005 0 0 0 1.309e-06 
94 1 0.0235 0.0005 0 0 0 0 0.0005 0 0 0 1.309e-06 
95 1 0.0235 0 0.0005 0 0 0 0.0005 0 0 0 1.309e-06 
97 1 0.024 0 0 0 0 0 0.0005 0 0 0 1.309e-06 
100 1 0.024 0.0005 0.0005 0 0 0 0.0005 0 0 0 1.309e-06 
221 1 0.0235 0.001 0.0005 0 0 0 0.0005 0 0 0 1.309e-06 
223 1 0.024 0.001 0 0 0 0 0.0005 0 0 0 1.309e-06 
2316 1 0.0235 0.0005 0.001 0 0 0 0.0005 0 0 0 1.309e-06 
2317 1 0.024 0 0.001 0 0 0 0.0005 0 0 0 1.309e-06 
2380 1 0.024 0.001 0.001 0 0 0 0.0005 0 0 0 1.309e-06 
98 1 0.0245 0.0005 0 0 0 0 0.0005 0 0 0 1.309e-06 
99 1 0.0245 0 0.0005 0 0 0 0.0005 0 0 0 1.309e-06 
101 1 0.025 0 0 0 0 0 0.0005 0 0 0 1.309e-06 
104 1 0.025 0.0005 0.0005 0 0 0 0.0005 0 0 0 1.309e-06 
225 1 0.0245 0.001 0.0005 0 0 0 0.0005 0 0 0 1.309e-06 
227 1 0.025 0.001 0 0 0 0 0.0005 0 0 0 1.309e-06 
2318 1 0.0245 0.0005 0.001 0 0 0 0.0005 0 0 0 1.309e-06 
2319 1 0.025 0 0.001 0 0 0 0.0005 0 0 0 1.309e-06 
2382 1 0.025 0.001 0.001 0 0 0 0.0005 0 0 0 1.309e-06 
102 1 0.0255 0.0005 0 0 0 0 0.0005 0 0 0 1.309e-06 
103 1 0.0255 0 0.0005 0 0 0 0.0005 0 0 0 1.309e-06 
105 1 0.026 0 0 0 0 0 0.0005 0 0 0 1.309e-06 
108 1 0.026 0.0005 0.0005 0 0 0 0.0005 0 0 0 1.309e-06 
229 1 0.0255 0.001 0.0005 0 0 0 0.0005 0 0 0 1.309e-06 
231 1 0.026 0.001 0 0 0 0 0.0005 0 0 0 1.309e-06 
2320 1 0.0255 0.0005 0.001 0 0 0 0.0005 0 0 0 1.309e-06 
2321 1 0.026 0 0.001 0 0 0 0.0005 0 0 0 1.309e-06 
2384 1 0.026 0.001 0.001 0 0 0 0.0005 0 0 0 1.309e-06 
106 1 0.0265 0.0005 0 0 0 0 0.0005 0 0 0 1.309e-06 
107 1 0.0265 0 0.0005 0 0 0 0.0005 0 0 0 1.309e-06 
109 1 0.027 0 0 0 0 0 0.0005 0 0 0 1.309e-06 
112 1 0.027 0.0005 0.0005 0 0 0 0.0005 0 0 0 1.309e-06 
233 1 0.0265 0.001 0.0005 0 0 0 0.0005 0 0 0 1.309e-06 
235 1 0.027 0.001 0 0 0 0 0.0005 0 0 0 1.309e-06 
2322 1 0.0265 0.0005 0.001 0 0 0 0.0005 0 0 0 1.309e-06 
2323 1 0.027 0 0.001 0 0 0 0.0005 0 0 0 1.309e-06 
2386 1 0.027 0.001 0.001 0 0 0 0.0005 0 0 0 1.309e-06 
110 1 0.0275 0.0005 0 0 0 0 0.0005 0 0 0 1.309e-06 
111 1 0.0275 0 0.0005 0 0 0 0.0005 0 0 0 1.309e-06 
113 1 0.028 0 0 0 0 0 0.0005 0 0 0 1.309e-06 
116 1 0.028 0.0005 0.0005 0 0 0 0.0005 0 0 0 1.309e-06 
237 1 0.0275 0.001 0.0005 0 0 0 0.0005 0 0 0 1.309e-06 
239 1 0.028 0.001 0 0 0 0 0.0005 0 0 0 1.309e-06 
2324 1 0.0275 0.0005 0.001 0 0 0 0.0005 0 0 0 1.309e-06 
2325 1 0.028 0 0.001 0 0 0 0.0005 0 0 0 1.309e-06 
2388 1 0.028 0.001 0.001 0 0 0 0.0005 0 0 0 1.309e-06 
114 1 0.0285 0.0005 0 0 0 0 0.0005 0 0 0 1.309e-06 
115 1 0.0285 0 0.0005 0 0 0 0.0005 0 0 0 1.309e-06 
117 1 0.029 0 0 0 0 0 0.0005 0 0 0 1.309e-06 
120 1 0.029 0.0005 0.0005 0 0 0 0.0005 0 0 0 1.309e-06 
241 1 0.0285 0.001 0.0005 0 0 0 0.0005 0 0 0 1.309e-06 
243 1 0.029 0.001 0 0 0 0 0.0005 0 0 0 1.309e-06 
2326 1 0.0285 0.0005 0.001 0 0 0 0.0005 0 0 0 1.309e-06 
2327 1 0.029 0 0.001 0 0 0 0.0005 0 0 0 1.309e-06 
2390 1 0.029 0.001 0.001 0 0 0 0.0005 0 0 0 1.309e-06 
118 1 0.0295 0.0005 0 0 0 0 0.0005 0 0 0 1.309e-06 
119 1 0.0295 0 0.0005 0 0 0 0.0005 0 0 0 1.309e-06 
121 1 0.03 0 0 0 0 0 0.0005 0 0 0 1.309e-06 
124 1 0.03 0.0005 0.0005 0 0 0 0.0005 0 0 0 1.309e-06 
245 1 0.0295 0.001 0.0005 0 0 0 0.0005 0 0 0 1.309e-06 
247 1 0.03 0.001 0 0 0 0 0.0005 0 0 0 1.309e-06 
2328 1 0.0295 0.0005 0.001 0 0 0 0.0005 0 0 0 1.309e-06 
2329 1 0.03 0 0.001 0 0 0 0.0005 0 0 0 1.309e-06 
2392 1 0.03 0.001 0.001 0 0 0 0.0005 0 0 0 1.309e-06 
122 1 0.0305 0.0005 0 0 0 0 0.0005 0 0 0 1.309e-06 
123 1 0.0305 0 0.0005 0 0 0 0.0005 0 0 0 1.309e-06 
125 1 0.031 0 0 0 0 0 0.0005 0 0 0 1.309e-06 
126 1 0.031 0.0005 0.0005 0 0 0 0.0005 0 0 0 1.309e-06 
249 1 0.0305 0.001 0.0005 0 0 0 0.0005 0 0 0 1.309e-06 
251 1 0.031 0.001 0 0 0 0 0.0005 0 0 0 1.309e-06 
2330 1 0.0305 0.0005 0.001 0 0 0 0.0005 0 0 0 1.309e-06 
2331 1 0.031 0 0.001 0 0 0 0.0005 0 0 0 1.309e-06 
2394 1 0.031 0.001 0.001 0 0 0 0.0005 0 0 0 1.309e-06 
128 1 0.0005 0.0015 0 0 0 0 0.0005 0 0 0 1.309e-06 
130 1 0 0.0015 0.0005 0 0 0 0.0005 0 0 0 1.309e-06 
134 1 0.001 0.0015 0.0005 0 0 0 0.0005 0 0 0 1.309e-06 
253 1 0 0.002 0 0 0 0 0.0005 0 0 0 1.309e-06 
255 1 0.0005 0.002 0.0005 0 0 0 0.0005 0 0 0 1.309e-06 
257 1 0.001 0.002 0 0 0 0 0.0005 0 0 0 1.309e-06 
2333 1 0.0005 0.0015 0.001 0 0 0 0.0005 0 0 0 1.309e-06 
2395 1 0 0.002 0.001 0 0 0 0.0005 0 0 0 1.309e-06 
2397 1 0.001 0.002 0.001 0 0 0 0.0005 0 0 0 1.309e-06 
132 1 0.0015 0.0015 0 0 0 0 0.0005 0 0 0 1.309e-06 
138 1 0.002 0.0015 0.0005 0 0 0 0.0005 0 0 0 1.309e-06 
259 1 0.0015 0.002 0.0005 0 0 0 0.0005 0 0 0 1.309e-06 
261 1 0.002 0.002 0 0 0 0 0.0005 0 0 0 1.309e-06 
2335 1 0.0015 0.0015 0.001 0 0 0 0.0005 0 0 0 1.309e-06 
2399 1 0.002 0.002 0.001 0 0 0 0.0005 0 0 0 1.309e-06 
136 1 0.0025 0.0015 0 0 0 0 0.0005 0 0 0 1.309e-06 
142 1 0.003 0.0015 0.0005 0 0 0 0.0005 0 0 0 1.309e-06 
263 1 0.0025 0.002 0.0005 0 0 0 0.0005 0 0 0 1.309e-06 
265 1 0.003 0.002 0 0 0 0 0.0005 0 0 0 1.309e-06 
2337 1 0.0025 0.0015 0.001 0 0 0 0.0005 0 0 0 1.309e-06 
2401 1 0.003 0.002 0.001 0 0 0 0.0005 0 0 0 1.309e-06 
140 1 0.0035 0.0015 0 0 0 0 0.0005 0 0 0 1.309e-06 
146 1 0.004 0.0015 0.0005 0 0 0 0.0005 0 0 0 1.309e-06 
267 1 0.0035 0.002 0.0005 0 0 0 0.0005 0 0 0 1.309e-06 
269 1 0.004 0.002 0 0 0 0 0.0005 0 0 0 1.309e-06 
2339 1 0.0035 0.0015 0.001 0 0 0 0.0005 0 0 0 1.309e-06 
2403 1 0.004 0.002 0.001 0 0 0 0.0005 0 0 0 1.309e-06 
144 1 0.0045 0.0015 0 0 0 0 0.0005 0 0 0 1.309e-06 
150 1 0.005 0.0015 0.0005 0 0 0 0.0005 0 0 0 1.309e-06 
271 1 0.0045 0.002 0.0005 0 0 0 0.0005 0 0 0 1.309e-06 
273 1 0.005 0.002 0 0 0 0 0.0005 0 0 0 1.309e-06 
2341 1 0.0045 0.0015 0.001 0 0 0 0.0005 0 0 0 1.309e-06 
2405 1 0.005 0.002 0.001 0 0 0 0.0005 0 0 0 1.309e-06 
148 1 0.0055 0.0015 0 0 0 0 0.0005 0 0 0 1.309e-06 
154 1 0.006 0.0015 0.0005 0 0 0 0.0005 0 0 0 1.309e-06 
275 1 0.0055 0.002 0.0005 0 0 0 0.0005 0 0 0 1.309e-06 
277 1 0.006 0.002 0 0 0 0 0.0005 0 0 0 1.309e-06 
2343 1 0.0055 0.0015 0.001 0 0 0 0.0005 0 0 0 1.309e-06 
2407 1 0.006 0.002 0.001 0 0 0 0.0005 0 0 0 1.309e-06 
152 1 0.0065 0.0015 0 0 0 0 0.0005 0 0 0 1.309e-06 
158 1 0.007 0.0015 0.0005 0 0 0 0.0005 0 0 0 1.309e-06 
279 1 0.0065 0.002 0.0005 0 0 0 0.0005 0 0 0 1.309e-06 
281 1 0.007 0.002 0 0 0 0 0.0005 0 0 0 1.309e-06 
2345 1 0.0065 0.0015 0.001 0 0 0 0.0005 0 0 0 1.309e-06 
2409 1 0.007 0.002 0.001 0 0 0 0.0005 0 0 0 1.309e-06 
156 1 0.0075 0.0015 0 0 0 0 0.0005 0 0 0 1.309e-06 
162 1 0.008 0.0015 0.0005 0 0 0 0.0005 0 0 0 1.309e-06 
283 1 0.0075 0.002 0.0005 0 0 0 0.0005 0 0 0 1.309e-06 
285 1 0.008 0.002 0 0 0 0 0.0005 0 0 0 1.309e-06 
2347 1 0.0075 0.0015 0.001 0 0 0 0.0005 0 0 0 1.309e-06 
2411 1 0.008 0.002 0.001 0 0 0 0.0005 0 0 0 1.309e-06 
160 1 0.0085 0.0015 0 0 0 0 0.0005 0 0 0 1.309e-06 
166 1 0.009 0.0015 0.0005 0 0 0 0.0005 0 0 0 1.309e-06 
287 1 0.0085 0.002 0.0005 0 0 0 0.0005 0 0 0 1.309e-06 
289 1 0.009 0.002 0 0 0 0 0.0005 0 0 0 1.309e-06 
2349 1 0.0085 0.0015 0.001 0 0 0 0.0005 0 0 0 1.309e-06 
2413 1 0.009 0.002 0.001 0 0 0 0.0005 0 0 0 1.309e-06 
164 1 0.0095 0.0015 0 0 0 0 0.0005 0 0 0 1.309e-06 
170 1 0.01 0.0015 0.0005 0 0 0 0.0005 0 0 0 1.309e-06 
291 1 0.0095 0.002 0.0005 0 0 0 0.0005 0 0 0 1.309e-06 
293 1 0.01 0.002 0 0 0 0 0.0005 0 0 0 1.309e-06 
2351 1 0.0095 0.0015 0.001 0 0 0 0.0005 0 0 0 1.309e-06 
2415 1 0.01 0.002 0.001 0 0 0 0.0005 0 0 0 1.309e-06 
168 1 0.0105 0.0015 0 0 0 0 0.0005 0 0 0 1.309e-06 
172 1 0.0115 0.0015 0 0 0 0 0.0005 0 0 0 1.309e-06 
174 1 0.011 0.0015 0.0005 0 0 0 0.0005 0 0 0 1.309e-06 
295 1 0.0105 0.002 0.0005 0 0 0 0.0005 0 0 0 1.309e-06 
297 1 0.011 0.002 0 0 0 0 0.0005 0 0 0 1.309e-06 
299 1 0.0115 0.002 0.0005 0 0 0 0.0005 0 0 0 1.309e-06 
2353 1 0.0105 0.0015 0.001 0 0 0 0.0005 0 0 0 1.309e-06 
2355 1 0.0115 0.0015 0.001 0 0 0 0.0005 0 0 0 1.309e-06 
2417 1 0.011 0.002 0.001 0 0 0 0.0005 0 0 0 1.309e-06 
176 1 0.0125 0.0015 0 0 0 0 0.0005 0 0 0 1.309e-06 
178 1 0.012 0.0015 0.0005 0 0 0 0.0005 0 0 0 1.309e-06 
301 1 0.012 0.002 0 0 0 0 0.0005 0 0 0 1.309e-06 
303 1 0.0125 0.002 0.0005 0 0 0 0.0005 0 0 0 1.309e-06 
2357 1 0.0125 0.0015 0.001 0 0 0 0.0005 0 0 0 1.309e-06 
2419 1 0.012 0.002 0.001 0 0 0 0.0005 0 0 0 1.309e-06 
180 1 0.0135 0.0015 0 0 0 0 0.0005 0 0 0 1.309e-06 
182 1 0.013 0.0015 0.0005 0 0 0 0.0005 0 0 0 1.309e-06 
305 1 0.013 0.002 0 0 0 0 0.0005 0 0 0 1.309e-06 
307 1 0.0135 0.002 0.0005 0 0 0 0.0005 0 0 0 1.309e-06 
2359 1 0.0135 0.0015 0.001 0 0 0 0.0005 0 0 0 1.309e-06 
2421 1 0.013 0.002 0.001 0 0 0 0.0005 0 0 0 1.309e-06 
184 1 0.0145 0.0015 0 0 0 0 0.0005 0 0 0 1.309e-06 
186 1 0.014 0.0015 0.0005 0 0 0 0.0005 0 0 0 1.309e-06 
309 1 0.014 0.002 0 0 0 0 0.0005 0 0 0 1.309e-06 
311 1 0.0145 0.002 0.0005 0 0 0 0.0005 0 0 0 1.309e-06 
2361 1 0.0145 0.0015 0.001 0 0 0 0.0005 0 0 0 1.309e-06 
2423 1 0.014 0.002 0.001 0 0 0 0.0005 0 0 0 1.309e-06 
188 1 0.0155 0.0015 0 0 0 0 0.0005 0 0 0 1.309e-06 
190 1 0.015 0.0015 0.0005 0 0 0 0.0005 0 0 0 1.309e-06 
313 1 0.015 0.002 0 0 0 0 0.0005 0 0 0 1.309e-06 
315 1 0.0155 0.002 0.0005 0 0 0 0.0005 0 0 0 1.309e-06 
2363 1 0.0155 0.0015 0.001 0 0 0 0.0005 0 0 0 1.309e-06 
2425 1 0.015 0.002 0.001 0 0 0 0.0005 0 0 0 1.309e-06 
192 1 0.0165 0.0015 0 0 0 0 0.0005 0 0 0 1.309e-06 
194 1 0.016 0.0015 0.0005 0 0 0 0.0005 0 0 0 1.309e-06 
317 1 0.016 0.002 0 0 0 0 0.0005 0 0 0 1.309e-06 
319 1 0.0165 0.002 0.0005 0 0 0 0.0005 0 0 0 1.309e-06 
2365 1 0.0165 0.0015 0.001 0 0 0 0.0005 0 0 0 1.309e-06 
2427 1 0.016 0.002 0.001 0 0 0 0.0005 0 0 0 1.309e-06 
196 1 0.0175 0.0015 0 0 0 0 0.0005 0 0 0 1.309e-06 
198 1 0.017 0.0015 0.0005 0 0 0 0.0005 0 0 0 1.309e-06 
321 1 0.017 0.002 0 0 0 0 0.0005 0 0 0 1.309e-06 
323 1 0.0175 0.002 0.0005 0 0 0 0.0005 0 0 0 1.309e-06 
2367 1 0.0175 0.0015 0.001 0 0 0 0.0005 0 0 0 1.309e-06 
2429 1 0.017 0.002 0.001 0 0 0 0.0005 0 0 0 1.309e-06 
200 1 0.0185 0.0015 0 0 0 0 0.0005 0 0 0 1.309e-06 
202 1 0.018 0.0015 0.0005 0 0 0 0.0005 0 0 0 1.309e-06 
325 1 0.018 0.002 0 0 0 0 0.0005 0 0 0 1.309e-06 
327 1 0.0185 0.002 0.0005 0 0 0 0.0005 0 0 0 1.309e-06 
2369 1 0.0185 0.0015 0.001 0 0 0 0.0005 0 0 0 1.309e-06 
2431 1 0.018 0.002 0.001 0 0 0 0.0005 0 0 0 1.309e-06 
204 1 0.0195 0.0015 0 0 0 0 0.0005 0 0 0 1.309e-06 
206 1 0.019 0.0015 0.0005 0 0 0 0.0005 0 0 0 1.309e-06 
329 1 0.019 0.002 0 0 0 0 0.0005 0 0 0 1.309e-06 
331 1 0.0195 0.002 0.0005 0 0 0 0.0005 0 0 0 1.309e-06 
2371 1 0.0195 0.0015 0.001 0 0 0 0.0005 0 0 0 1.309e-06 
2433 1 0.019 0.002 0.001 0 0 0 0.0005 0 0 0 1.309e-06 
208 1 0.0205 0.0015 0 0 0 0 0.0005 0 0 0 1.309e-06 
210 1 0.02 0.0015 0.0005 0 0 0 0.0005 0 0 0 1.309e-06 
333 1 0.02 0.002 0 0 0 0 0.0005 0 0 0 1.309e-06 
335 1 0.0205 0.002 0.0005 0 0 0 0.0005 0 0 0 1.309e-06 
2373 1 0.0205 0.0015 0.001 0 0 0 0.0005 0 0 0 1.309e-06 
2435 1 0.02 0.002 0.001 0 0 0 0.0005 0 0 0 1.309e-06 
212 1 0.0215 0.0015 0 0 0 0 0.0005 0 0 0 1.309e-06 
214 1 0.021 0.0015 0.0005 0 0 0 0.0005 0 0 0 1.309e-06 
218 1 0.022 0.0015 0.0005 0 0 0 0.0005 0 0 0 1.309e-06 
337 1 0.021 0.002 0 0 0 0 0.0005 0 0 0 1.309e-06 
339 1 0.0215 0.002 0.0005 0 0 0 0.0005 0 0 0 1.309e-06 
341 1 0.022 0.002 0 0 0 0 0.0005 0 0 0 1.309e-06 
2375 1 0.0215 0.0015 0.001 0 0 0 0.0005 0 0 0 1.309e-06 
2437 1 0.021 0.002 0.001 0 0 0 0.0005 0 0 0 1.309e-06 
2439 1 0.022 0.002 0.001 0 0 0 0.0005 0 0 0 1.309e-06 
216 1 0.0225 0.0015 0 0 0 0 0.0005 0 0 0 1.309e-06 
222 1 0.023 0.0015 0.0005 0 0 0 0.0005 0 0 0 1.309e-06 
343 1 0.0225 0.002 0.0005 0 0 0 0.0005 0 0 0 1.309e-06 
345 1 0.023 0.002 0 0 0 0 0.0005 0 0 0 1.309e-06 
2377 1 0.0225 0.0015 0.001 0 0 0 0.0005 0 0 0 1.309e-06 
2441 1 0.023 0.002 0.001 0 0 0 0.0005 0 0 0 1.309e-06 
220 1 0.0235 0.0015 0 0 0 0 0.0005 0 0 0 1.309e-06 
226 1 0.024 0.0015 0.0005 0 0 0 0.0005 0 0 0 1.309e-06 
347 1 0.0235 0.002 0.0005 0 0 0 0.0005 0 0 0 1.309e-06 
349 1 0.024 0.002 0 0 0 0 0.0005 0 0 0 1.309e-06 
2379 1 0.0235 0.0015 0.001 0 0 0 0.0005 0 0 0 1.309e-06 
2443 1 0.024 0.002 0.001 0 0 0 0.0005 0 0 0 1.309e-06 
224 1 0.0245 0.0015 0 0 0 0 0.0005 0 0 0 1.309e-06 
230 1 0.025 0.0015 0.0005 0 0 0 0.0005 0 0 0 1.309e-06 
351 1 0.0245 0.002 0.0005 0 0 0 0.0005 0 0 0 1.309e-06 
353 1 0.025 0.002 0 0 0 0 0.0005 0 0 0 1.309e-06 
2381 1 0.0245 0.0015 0.001 0 0 0 0.0005 0 0 0 1.309e-06 
2445 1 0.025 0.002 0.001 0 0 0 0.0005 0 0 0 1.309e-06 
228 1 0.0255 0.0015 0 0 0 0 0.0005 0 0 0 1.309e-06 
234 1 0.026 0.0015 0.0005 0 0 0 0.0005 0 0 0 1.309e-06 
355 1 0.0255 0.002 0.0005 0 0 0 0.0005 0 0 0 1.309e-06 
357 1 0.026 0.002 0 0 0 0 0.0005 0 0 0 1.309e-06 
2383 1 0.0255 0.0015 0.001 0 0 0 0.0005 0 0 0 1.309e-06 
2447 1 0.026 0.002 0.001 0 0 0 0.0005 0 0 0 1.309e-06 
232 1 0.0265 0.0015 0 0 0 0 0.0005 0 0 0 1.309e-06 
238 1 0.027 0.0015 0.0005 0 0 0 0.0005 0 0 0 1.309e-06 
359 1 0.0265 0.002 0.0005 0 0 0 0.0005 0 0 0 1.309e-06 
361 1 0.027 0.002 0 0 0 0 0.0005 0 0 0 1.309e-06 
2385 1 0.0265 0.0015 0.001 0 0 0 0.0005 0 0 0 1.309e-06 
2449 1 0.027 0.002 0.001 0 0 0 0.0005 0 0 0 1.309e-06 
236 1 0.0275 0.0015 0 0 0 0 0.0005 0 0 0 1.309e-06 
242 1 0.028 0.0015 0.0005 0 0 0 0.0005 0 0 0 1.309e-06 
363 1 0.0275 0.002 0.0005 0 0 0 0.0005 0 0 0 1.309e-06 
365 1 0.028 0.002 0 0 0 0 0.0005 0 0 0 1.309e-06 
2387 1 0.0275 0.0015 0.001 0 0 0 0.0005 0 0 0 1.309e-06 
2451 1 0.028 0.002 0.001 0 0 0 0.0005 0 0 0 1.309e-06 
240 1 0.0285 0.0015 0 0 0 0 0.0005 0 0 0 1.309e-06 
246 1 0.029 0.0015 0.0005 0 0 0 0.0005 0 0 0 1.309e-06 
367 1 0.0285 0.002 0.0005 0 0 0 0.0005 0 0 0 1.309e-06 
369 1 0.029 0.002 0 0 0 0 0.0005 0 0 0 1.309e-06 
2389 1 0.0285 0.0015 0.001 0 0 0 0.0005 0 0 0 1.309e-06 
2453 1 0.029 0.002 0.001 0 0 0 0.0005 0 0 0 1.309e-06 
244 1 0.0295 0.0015 0 0 0 0 0.0005 0 0 0 1.309e-06 
250 1 0.03 0.0015 0.0005 0 0 0 0.0005 0 0 0 1.309e-06 
371 1 0.0295 0.002 0.0005 0 0 0 0.0005 0 0 0 1.309e-06 
373 1 0.03 0.002 0 0 0 0 0.0005 0 0 0 1.309e-06 
2391 1 0.0295 0.0015 0.001 0 0 0 0.0005 0 0 0 1.309e-06 
2455 1 0.03 0.002 0.001 0 0 0 0.0005 0 0 0 1.309e-06 
248 1 0.0305 0.0015 0 0 0 0 0.0005 0 0 0 1.309e-06 
252 1 0.031 0.0015 0.0005 0 0 0 0.0005 0 0 0 1.309e-06 
375 1 0.0305 0.002 0.0005 0 0 0 0.0005 0 0 0 1.309e-06 
377 1 0.031 0.002 0 0 0 0 0.0005 0 0 0 1.309e-06 
2393 1 0.0305 0.0015 0.001 0 0 0 0.0005 0 0 0 1.309e-06 
2457 1 0.031 0.002 0.001 0 0 0 0.0005 0 0 0 1.309e-06 
254 1 0.0005 0.0025 0 0 0 0 0.0005 0 0 0 1.309e-06 
256 1 0 0.0025 0.0005 0 0 0 0.0005 0 0 0 1.309e-06 
260 1 0.001 0.0025 0.0005 0 0 0 0.0005 0 0 0 1.309e-06 
379 1 0 0.003 0 0 0 0 0.0005 0 0 0 1.309e-06 
381 1 0.0005 0.003 0.0005 0 0 0 0.0005 0 0 0 1.309e-06 
383 1 0.001 0.003 0 0 0 0 0.0005 0 0 0 1.309e-06 
2396 1 0.0005 0.0025 0.001 0 0 0 0.0005 0 0 0 1.309e-06 
2458 1 0 0.003 0.001 0 0 0 0.0005 0 0 0 1.309e-06 
2460 1 0.001 0.003 0.001 0 0 0 0.0005 0 0 0 1.309e-06 
258 1 0.0015 0.0025 0 0 0 0 0.0005 0 0 0 1.309e-06 
264 1 0.002 0.0025 0.0005 0 0 0 0.0005 0 0 0 1.309e-06 
385 1 0.0015 0.003 0.0005 0 0 0 0.0005 0 0 0 1.309e-06 
387 1 0.002 0.003 0 0 0 0 0.0005 0 0 0 1.309e-06 
2398 1 0.0015 0.0025 0.001 0 0 0 0.0005 0 0 0 1.309e-06 
2462 1 0.002 0.003 0.001 0 0 0 0.0005 0 0 0 1.309e-06 
262 1 0.0025 0.0025 0 0 0 0 0.0005 0 0 0 1.309e-06 
268 1 0.003 0.0025 0.0005 0 0 0 0.0005 0 0 0 1.309e-06 
389 1 0.0025 0.003 0.0005 0 0 0 0.0005 0 0 0 1.309e-06 
391 1 0.003 0.003 0 0 0 0 0.0005 0 0 0 1.309e-06 
2400 1 0.0025 0.0025 0.001 0 0 0 0.0005 0 0 0 1.309e-06 
2464 1 0.003 0.003 0.001 0 0 0 0.0005 0 0 0 1.309e-06 
266 1 0.0035 0.0025 0 0 0 0 0.0005 0 0 0 1.309e-06 
272 1 0.004 0.0025 0.0005 0 0 0 0.0005 0 0 0 1.309e-06 
393 1 0.0035 0.003 0.0005 0 0 0 0.0005 0 0 0 1.309e-06 
395 1 0.004 0.003 0 0 0 0 0.0005 0 0 0 1.309e-06 
2402 1 0.0035 0.0025 0.001 0 0 0 0.0005 0 0 0 1.309e-06 
2466 1 0.004 0.003 0.001 0 0 0 0.0005 0 0 0 1.309e-06 
270 1 0.0045 0.0025 0 0 0 0 0.0005 0 0 0 1.309e-06 
276 1 0.005 0.0025 0.0005 0 0 0 0.0005 0 0 0 1.309e-06 
397 1 0.0045 0.003 0.0005 0 0 0 0.0005 0 0 0 1.309e-06 
399 1 0.005 0.003 0 0 0 0 0.0005 0 0 0 1.309e-06 
2404 1 0.0045 0.0025 0.001 0 0 0 0.0005 0 0 0 1.309e-06 
2468 1 0.005 0.003 0.001 0 0 0 0.0005 0 0 0 1.309e-06 
274 1 0.0055 0.0025 0 0 0 0 0.0005 0 0 0 1.309e-06 
280 1 0.006 0.0025 0.0005 0 0 0 0.0005 0 0 0 1.309e-06 
401 1 0.0055 0.003 0.0005 0 0 0 0.0005 0 0 0 1.309e-06 
403 1 0.006 0.003 0 0 0 0 0.0005 0 0 0 1.309e-06 
2406 1 0.0055 0.0025 0.001 0 0 0 0.0005 0 0 0 1.309e-06 
2470 1 0.006 0.003 0.001 0 0 0 0.0005 0 0 0 1.309e-06 
278 1 0.0065 0.0025 0 0 0 0 0.0005 0 0 0 1.309e-06 
284 1 0.007 0.0025 0.0005 0 0 0 0.0005 0 0 0 1.309e-06 
405 1 0.0065 0.003 0.0005 0 0 0 0.0005 0 0 0 1.309e-06 
407 1 0.007 0.003 0 0 0 0 0.0005 0 0 0 1.309e-06 
2408 1 0.0065 0.0025 0.001 0 0 0 0.0005 0 0 0 1.309e-06 
2472 1 0.007 0.003 0.001 0 0 0 0.0005 0 0 0 1.309e-06 
282 1 0.0075 0.0025 0 0 0 0 0.0005 0 0 0 1.309e-06 
288 1 0.008 0.0025 0.0005 0 0 0 0.0005 0 0 0 1.309e-06 
409 1 0.0075 0.003 0.0005 0 0 0 0.0005 0 0 0 1.309e-06 
411 1 0.008 0.003 0 0 0 0 0.0005 0 0 0 1.309e-06 
2410 1 0.0075 0.0025 0.001 0 0 0 0.0005 0 0 0 1.309e-06 
2474 1 0.008 0.003 0.001 0 0 0 0.0005 0 0 0 1.309e-06 
286 1 0.0085 0.0025 0 0 0 0 0.0005 0 0 0 1.309e-06 
292 1 0.009 0.0025 0.0005 0 0 0 0.0005 0 0 0 1.309e-06 
413 1 0.0085 0.003 0.0005 0 0 0 0.0005 0 0 0 1.309e-06 
415 1 0.009 0.003 0 0 0 0 0.0005 0 0 0 1.309e-06 
2412 1 0.0085 0.0025 0.001 0 0 0 0.0005 0 0 0 1.309e-06 
2476 1 0.009 0.003 0.001 0 0 0 0.0005 0 0 0 1.309e-06 
290 1 0.0095 0.0025 0 0 0 0 0.0005 0 0 0 1.309e-06 
296 1 0.01 0.0025 0.0005 0 0 0 0.0005 0 0 0 1.309e-06 
417 1 0.0095 0.003 0.0005 0 0 0 0.0005 0 0 0 1.309e-06 
419 1 0.01 0.003 0 0 0 0 0.0005 0 0 0 1.309e-06 
2414 1 0.0095 0.0025 0.001 0 0 0 0.0005 0 0 0 1.309e-06 
2478 1 0.01 0.003 0.001 0 0 0 0.0005 0 0 0 1.309e-06 
294 1 0.0105 0.0025 0 0 0 0 0.0005 0 0 0 1.309e-06 
298 1 0.0115 0.0025 0 0 0 0 0.0005 0 0 0 1.309e-06 
300 1 0.011 0.0025 0.0005 0 0 0 0.0005 0 0 0 1.309e-06 
421 1 0.0105 0.003 0.0005 0 0 0 0.0005 0 0 0 1.309e-06 
423 1 0.011 0.003 0 0 0 0 0.0005 0 0 0 1.309e-06 
425 1 0.0115 0.003 0.0005 0 0 0 0.0005 0 0 0 1.309e-06 
2416 1 0.0105 0.0025 0.001 0 0 0 0.0005 0 0 0 1.309e-06 
2418 1 0.0115 0.0025 0.001 0 0 0 0.0005 0 0 0 1.309e-06 
2480 1 0.011 0.003 0.001 0 0 0 0.0005 0 0 0 1.309e-06 
302 1 0.0125 0.0025 0 0 0 0 0.0005 0 0 0 1.309e-06 
304 1 0.012 0.0025 0.0005 0 0 0 0.0005 0 0 0 1.309e-06 
427 1 0.012 0.003 0 0 0 0 0.0005 0 0 0 1.309e-06 
429 1 0.0125 0.003 0.0005 0 0 0 0.0005 0 0 0 1.309e-06 
2420 1 0.0125 0.0025 0.001 0 0 0 0.0005 0 0 0 1.309e-06 
2482 1 0.012 0.003 0.001 0 0 0 0.0005 0 0 0 1.309e-06 
306 1 0.0135 0.0025 0 0 0 0 0.0005 0 0 0 1.309e-06 
308 1 0.013 0.0025 0.0005 0 0 0 0.0005 0 0 0 1.309e-06 
431 1 0.013 0.003 0 0 0 0 0.0005 0 0 0 1.309e-06 
433 1 0.0135 0.003 0.0005 0 0 0 0.0005 0 0 0 1.309e-06 
2422 1 0.0135 0.0025 0.001 0 0 0 0.0005 0 0 0 1.309e-06 
2484 1 0.013 0.003 0.001 0 0 0 0.0005 0 0 0 1.309e-06 
310 1 0.0145 0.0025 0 0 0 0 0.0005 0 0 0 1.309e-06 
312 1 0.014 0.0025 0.0005 0 0 0 0.0005 0 0 0 1.309e-06 
435 1 0.014 0.003 0 0 0 0 0.0005 0 0 0 1.309e-06 