LIGGGHTS (Version LIGGGHTS-PUBLIC 3.8.0, compiled 2022-09-27-15:26:50 by anmol, git commit unknown)
atom_style	hybrid granular dipole
boundary	f f f
newton		off
atom_modify	sort 10000 0

communicate	single vel yes
units		si
processors	1 1 1


soft_particles yes

# variable reg_dim equal 10 #meters

region		reg block -1 1 -1 10 0 10 units box
create_box	1 reg
Created orthogonal box = (-1 -1 0) to (1 10 10)
  1 by 1 by 1 MPI processor grid
neighbor	2 bin
neigh_modify	delay 0 every 1

## Material Property variables
variable restiv equal 0.06
variable static_fric equal 0.5
variable rolling_fric equal 0.0
variable visc_damp equal 0
variable k_c equal 0
variable r_p equal 0.00125
## Material properties
fix            m1 all property/global youngsModulus peratomtype 5e6
fix            m2 all property/global poissonsRatio peratomtype 0.3
fix  	       m3 all property/global coefficientRestitution peratomtypepair 1 ${restiv}
fix  	       m3 all property/global coefficientRestitution peratomtypepair 1 0.06
fix            m4 all property/global coefficientFriction peratomtypepair 1 ${static_fric}
fix            m4 all property/global coefficientFriction peratomtypepair 1 0.5
fix            m5 all property/global characteristicVelocity scalar .01
fix            m6 all property/global cohesionEnergyDensity peratomtypepair 1 ${k_c}
fix            m6 all property/global cohesionEnergyDensity peratomtypepair 1 0
fix	       m7 all property/global coefficientRollingFriction peratomtypepair 1 ${rolling_fric}
fix	       m7 all property/global coefficientRollingFriction peratomtypepair 1 0
fix	       m8 all property/global coefficientRollingViscousDamping peratomtypepair 1 ${visc_damp}
fix	       m8 all property/global coefficientRollingViscousDamping peratomtypepair 1 0


pair_style gran model hertz tangential history rolling_friction epsd torsionTorque on
WARNING: 
	The contact model you specified is not located in any whitelist.
	Because of this the model will be run in an unoptimized version (increasing runtime by up to 20%).
	In order to optimize this model you have the following options:
		(i)  Run the genAutoExamplesWhitelist.sh script in your LIGGGHTS(R) source folder to automatically parse the input script
		(ii) Add the model combination by hand to your style_contact_model_user.whitelist that can be found in your LIGGGHTS(R) source folder
	If you perform one of the steps above LIGGGHTS(R) needs to be recompiled to generate the optimized code.

 (../contact_models.h:364)
pair_coeff	* *

timestep	10e-6 # seconds

#radius of atoms
variable atom_rad equal 0.5 #meters
#diameter of atoms
variable atom_dia equal 2*${atom_rad}
variable atom_dia equal 2*0.5

create_atoms	1 single 0 0 2
Created 1 atoms
set		        atom 1 diameter ${atom_dia} mass 1.0
set		        atom 1 diameter 1 mass 1.0
  1 settings made for diameter
  1 settings made for mass
group           atom_i id 1
1 atoms in group atom_i

#angle of impact
variable        angle_impact equal PI/4  #radians

#velocity magnitude
variable        vel_magnitude equal 5 # units

print ${angle_impact}
print 0.785398163397448
0.785398163397448

variable        velocity_y equal sin(${angle_impact})*${vel_magnitude}
variable        velocity_y equal sin(0.785398163397448)*${vel_magnitude}
variable        velocity_y equal sin(0.785398163397448)*5
variable        velocity_z equal -cos(${angle_impact})*${vel_magnitude}
variable        velocity_z equal -cos(0.785398163397448)*${vel_magnitude}
variable        velocity_z equal -cos(0.785398163397448)*5

velocity        atom_i set 0 ${velocity_y} ${velocity_z}
velocity        atom_i set 0 3.53553390593274 ${velocity_z}
velocity        atom_i set 0 3.53553390593274 -3.53553390593274

fix             zwalls all wall/gran model hertz tangential history primitive type 1 zplane 0.15


fix             int all nve/sphere


dump            dmp all custom 1000 post/dump*.liggghts id type fx fy fz vx vy vz omegax omegay omegaz x y z radius mass
run	            100000
Setting up run at Wed Oct 26 01:59:14 2022

Memory usage per processor = 10.4885 Mbytes
    Step    Atoms         KinEng            CPU 
       0        1           12.5              0 
  100000        1      3.2432934     0.12418101 
Loop time of 0.124222 on 1 procs for 100000 steps with 1 atoms, finish time Wed Oct 26 01:59:14 2022


Pair  time (%) = 0.0426875 (34.3639)
Neigh time (%) = 1.7638e-05 (0.0141988)
Comm  time (%) = 0.0064248 (5.17202)
Outpt time (%) = 0.0213366 (17.1762)
Other time (%) = 0.0537555 (43.2737)

Nlocal:    1 ave 1 max 1 min
Histogram: 1 0 0 0 0 0 0 0 0 0
Nghost:    0 ave 0 max 0 min
Histogram: 1 0 0 0 0 0 0 0 0 0
Neighs:    0 ave 0 max 0 min
Histogram: 1 0 0 0 0 0 0 0 0 0

Total # of neighbors = 0
Ave neighs/atom = 0
Neighbor list builds = 3
Dangerous builds = 0

