ITEM: TIMESTEP
0
ITEM: NUMBER OF ATOMS
2
ITEM: BOX BOUNDS ff ff ff
-10 10
-10 10
-10 10
ITEM: ATOMS id type fx fy fz x y z radius mux muy muz 
2 1 6.29898e-08 -3.09753 -1.24172e-07 0 0 -2.6 1 0 3.09761 0 
1 1 -6.29898e-08 -3.09761 1.24172e-07 0 0 0 1 0 3.09753 0 
