ITEM: TIMESTEP
0
ITEM: NUMBER OF ATOMS
2
ITEM: BOX BOUNDS ff ff ff
-10 10
-10 10
-10 10
ITEM: ATOMS id type fx fy fz x y z radius mux muy muz 
2 1 4.70933e-08 -3.10622 -9.33018e-08 0 0 -2.8 1 0 3.10626 0 
1 1 -4.70933e-08 -3.10626 9.33018e-08 0 0 0 1 0 3.10622 0 
