ITEM: TIMESTEP
0
ITEM: NUMBER OF ATOMS
2
ITEM: BOX BOUNDS ff ff ff
-10 10
-10 10
-10 10
ITEM: ATOMS id type fx fy fz x y z radius mux muy muz 
2 1 -3.30278e-22 5.16624e-22 5.19398e-08 0 0 -3.3 1 0 0 3.18598 
1 1 8.08169e-23 3.47713e-22 -5.19095e-08 0 0 0 1 0 0 3.18592 
