ITEM: TIMESTEP
2
ITEM: NUMBER OF ATOMS
2
ITEM: BOX BOUNDS ff ff ff
-10 10
-10 10
-10 10
ITEM: ATOMS id type fx fy fz x y z radius mux muy muz 
2 1 4.33774e-21 -2.53423e-20 5.90248e-08 0 0 -3.2 1 0 0 3.19027 
1 1 -3.99598e-22 3.13765e-21 -5.89898e-08 0 0 0 1 0 0 3.19027 
