ITEM: TIMESTEP
0
ITEM: NUMBER OF ATOMS
2
ITEM: BOX BOUNDS ff ff ff
-10 10
-10 10
-10 10
ITEM: ATOMS id type fx fy fz x y z radius mux muy muz 
2 1 8.91605e-22 1.51223e-20 1.71249e-07 0 0 -2.5 1 0 0 3.2459 
1 1 7.23006e-23 2.00234e-21 -1.71124e-07 0 0 0 1 0 0 3.24546 
