ITEM: TIMESTEP
0
ITEM: NUMBER OF ATOMS
2
ITEM: BOX BOUNDS ff ff ff
-10 10
-10 10
-10 10
ITEM: ATOMS id type fx fy fz x y z radius mux muy muz 
2 1 -1.92157e-20 3.07798e-22 1.86866e-10 0 0 -3.6 1 0 3.12486 0 
1 1 -7.26291e-21 -5.78195e-22 -1.86866e-10 0 0 0 1 0 3.12485 0 
