ITEM: TIMESTEP
0
ITEM: NUMBER OF ATOMS
2
ITEM: BOX BOUNDS ff ff ff
-10 10
-10 10
-10 10
ITEM: ATOMS id type fx fy fz x y z radius mux muy muz 
2 1 8.07509e-22 -2.37611e-21 7.7785e-09 0 0 -2.1 1 0 3.05936 0 
1 1 5.22359e-22 -4.70827e-21 -7.77761e-09 0 0 0 1 0 3.05901 0 
