ITEM: TIMESTEP
1
ITEM: NUMBER OF ATOMS
2
ITEM: BOX BOUNDS ff ff ff
-10 10
-10 10
-10 10
ITEM: ATOMS id type fx fy fz x y z radius mux muy muz 
2 1 9.09333e-21 8.24849e-22 2.27439e-10 0 0 -3.5 1 0 3.12338 0 
1 1 -3.42328e-21 -7.59768e-22 -2.27439e-10 0 0 0 1 0 3.12338 0 
