ITEM: TIMESTEP
1
ITEM: NUMBER OF ATOMS
2
ITEM: BOX BOUNDS ff ff ff
-10 10
-10 10
-10 10
ITEM: ATOMS id type fx fy fz x y z radius mux muy muz 
2 1 1.16071e-20 -7.48879e-22 1.79188e-09 0 0 -2.6 1 0 3.09753 0 
1 1 -9.50088e-21 3.096e-21 -1.79188e-09 0 0 0 1 0 3.09753 0 
