ITEM: TIMESTEP
2
ITEM: NUMBER OF ATOMS
2
ITEM: BOX BOUNDS ff ff ff
-10 10
-10 10
-10 10
ITEM: ATOMS id type fx fy fz x y z radius mux muy muz 
2 1 9.71536e-21 -1.41493e-21 6.64564e-10 0 0 -3 1 0 3.11277 0 
1 1 -4.75978e-21 -2.02123e-21 -6.64564e-10 0 0 0 1 0 3.11277 0 
