ITEM: TIMESTEP
1
ITEM: NUMBER OF ATOMS
2
ITEM: BOX BOUNDS ff ff ff
-10 10
-10 10
-10 10
ITEM: ATOMS id type fx fy fz x y z radius mux muy muz 
2 1 -3.00336e-21 2.50755e-22 4.17475e-09 0 0 -2.3 1 0 3.07834 0 
1 1 -1.09498e-20 7.14401e-22 -4.17475e-09 0 0 0 1 0 3.07834 0 
