ITEM: TIMESTEP
2
ITEM: NUMBER OF ATOMS
2
ITEM: BOX BOUNDS ff ff ff
-10 10
-10 10
-10 10
ITEM: ATOMS id type fx fy fz x y z radius mux muy muz 
2 1 -1.75653e-20 9.02726e-22 4.24365e-10 0 0 -3.2 1 0 3.11781 0 
1 1 1.35042e-20 1.18504e-21 -4.24365e-10 0 0 0 1 0 3.11781 0 
