ITEM: TIMESTEP
1
ITEM: NUMBER OF ATOMS
2
ITEM: BOX BOUNDS ff ff ff
-10 10
-10 10
-10 10
ITEM: ATOMS id type fx fy fz x y z radius mux muy muz 
2 1 -7.23109e-21 9.20213e-22 1.5442e-10 0 0 -3.7 1 0 3.12616 0 
1 1 2.25422e-20 -2.07979e-21 -1.5442e-10 0 0 0 1 0 3.12616 0 
