ITEM: TIMESTEP
1
ITEM: NUMBER OF ATOMS
2
ITEM: BOX BOUNDS ff ff ff
-10 10
-10 10
-10 10
ITEM: ATOMS id type fx fy fz x y z radius mux muy muz 
2 1 4.60368e-21 -2.44297e-21 -5.78509e-08 0 0 -2.6 1 0 3.09753 0 
1 1 1.97116e-20 6.20251e-21 5.78509e-08 0 0 0 1 0 3.09753 0 
