ITEM: TIMESTEP
2
ITEM: NUMBER OF ATOMS
2
ITEM: BOX BOUNDS ff ff ff
-10 10
-10 10
-10 10
ITEM: ATOMS id type fx fy fz x y z radius mux muy muz 
2 1 1.17974e-21 1.64127e-20 -5.04559e-08 0 0 -2.7 1 0 3.10219 0 
1 1 4.80598e-21 8.59735e-21 5.04559e-08 0 0 0 1 0 3.10219 0 
