ITEM: TIMESTEP
1
ITEM: NUMBER OF ATOMS
2
ITEM: BOX BOUNDS ff ff ff
-10 10
-10 10
-10 10
ITEM: ATOMS id type fx fy fz x y z radius mux muy muz 
2 1 1.3885e-20 -1.66899e-20 -1.12666e-08 0 0 -4 1 0 3.12937 0 
1 1 -1.59954e-21 -1.98209e-21 1.12666e-08 0 0 0 1 0 3.12937 0 
