ITEM: TIMESTEP
0
ITEM: NUMBER OF ATOMS
2
ITEM: BOX BOUNDS ff ff ff
-10 10
-10 10
-10 10
ITEM: ATOMS id type fx fy fz x y z radius mux muy muz 
2 1 7.94631e-21 -2.49294e-20 -4.41502e-08 0 0 -2.8 1 0 3.10626 0 
1 1 3.53583e-21 -4.76682e-22 4.41488e-08 0 0 0 1 0 3.10622 0 
