ITEM: TIMESTEP
0
ITEM: NUMBER OF ATOMS
1
ITEM: BOX BOUNDS ff ff ff
-10 10
-10 10
-10 10
ITEM: ATOMS id type fx fy fz x y z radius mux muy muz 
3 1 6.85796e-21 -2.07203e-20 4.98423e-07 0 0 -3.1 1 0 0 7.51468 
