ITEM: TIMESTEP
2
ITEM: NUMBER OF ATOMS
2
ITEM: BOX BOUNDS ff ff ff
-10 10
-10 10
-10 10
ITEM: ATOMS id type fx fy fz x y z radius mux muy muz 
2 1 5.68067e-22 5.9875e-21 1.43529e-07 0 0 -2.6 1 0 0 3.23358 
1 1 -3.11711e-22 -8.8188e-21 -1.43429e-07 0 0 0 1 0 0 3.23358 
