ITEM: TIMESTEP
1
ITEM: NUMBER OF ATOMS
2
ITEM: BOX BOUNDS ff ff ff
-10 10
-10 10
-10 10
ITEM: ATOMS id type fx fy fz x y z radius mux muy muz 
2 1 -8.92992e-23 -2.49283e-20 3.17427e-07 0 0 -2.2 1 0 0 3.29638 
1 1 -4.4915e-22 -3.93521e-21 -3.17154e-07 0 0 0 1 0 0 3.29638 
