ITEM: TIMESTEP
2
ITEM: NUMBER OF ATOMS
2
ITEM: BOX BOUNDS ff ff ff
-10 10
-10 10
-10 10
ITEM: ATOMS id type fx fy fz x y z radius mux muy muz 
2 1 3.66137e-21 1.24634e-20 3.24275e-08 0 0 -3.7 1 0 0 3.17291 
1 1 -5.06519e-22 -9.49649e-21 -3.24097e-08 0 0 0 1 0 0 3.17291 
