ITEM: TIMESTEP
0
ITEM: NUMBER OF ATOMS
2
ITEM: BOX BOUNDS ff ff ff
-10 10
-10 10
-10 10
ITEM: ATOMS id type fx fy fz x y z radius mux muy muz 
2 1 3.43375e-21 -8.15348e-22 1.43559e-07 0 0 -2.6 1 0 0 3.23392 
1 1 3.16776e-23 -1.37866e-22 -1.43458e-07 0 0 0 1 0 0 3.23359 
