ITEM: TIMESTEP
1
ITEM: NUMBER OF ATOMS
2
ITEM: BOX BOUNDS ff ff ff
-10 10
-10 10
-10 10
ITEM: ATOMS id type fx fy fz x y z radius mux muy muz 
2 1 2.2918e-21 -1.12644e-20 -2.79665e-08 0 0 -3.8 1 0 3.12734 0 
1 1 -2.16531e-20 -6.46685e-21 2.79665e-08 0 0 0 1 0 3.12734 0 
