ITEM: TIMESTEP
2
ITEM: NUMBER OF ATOMS
2
ITEM: BOX BOUNDS ff ff ff
-10 10
-10 10
-10 10
ITEM: ATOMS id type fx fy fz x y z radius mux muy muz 
2 1 -2.65897e-21 -2.03451e-20 -6.22163e-08 0 0 -3.1 1 0 3.11545 0 
1 1 5.5113e-22 -2.07035e-20 6.22163e-08 0 0 0 1 0 3.11545 0 
