ITEM: TIMESTEP
1
ITEM: NUMBER OF ATOMS
2
ITEM: BOX BOUNDS ff ff ff
-10 10
-10 10
-10 10
ITEM: ATOMS id type fx fy fz x y z radius mux muy muz 
2 1 -3.32172e-20 2.25035e-21 -3.21481e-07 0 0 -2 1 0 3.04649 0 
1 1 -9.05744e-21 -2.16668e-21 3.21471e-07 0 0 0 1 0 3.04639 0 
