ITEM: TIMESTEP
2
ITEM: NUMBER OF ATOMS
2
ITEM: BOX BOUNDS ff ff ff
-10 10
-10 10
-10 10
ITEM: ATOMS id type fx fy fz x y z radius mux muy muz 
2 1 5.53372e-21 1.02586e-21 -2.71818e-07 0 0 -2.1 1 0 3.05901 0 
1 1 2.36107e-20 1.23472e-20 2.71818e-07 0 0 0 1 0 3.05901 0 
