ITEM: TIMESTEP
0
ITEM: NUMBER OF ATOMS
2
ITEM: BOX BOUNDS ff ff ff
-10 10
-10 10
-10 10
ITEM: ATOMS id type fx fy fz x y z radius mux muy muz 
2 1 4.37456e-21 -2.87205e-21 -4.3343e-08 0 0 -3.4 1 0 3.12175 0 
1 1 -2.68663e-20 -7.64721e-22 4.33429e-08 0 0 0 1 0 3.12174 0 
