ITEM: TIMESTEP
0
ITEM: NUMBER OF ATOMS
2
ITEM: BOX BOUNDS ff ff ff
-10 10
-10 10
-10 10
ITEM: ATOMS id type fx fy fz x y z radius mux muy muz 
2 1 2.7625e-20 -4.56095e-21 -1.22648e-07 0 0 -2.6 1 0 3.09761 0 
1 1 5.04129e-21 -7.03101e-21 1.22645e-07 0 0 0 1 0 3.09753 0 
