ITEM: TIMESTEP
2
ITEM: NUMBER OF ATOMS
2
ITEM: BOX BOUNDS ff ff ff
-10 10
-10 10
-10 10
ITEM: ATOMS id type fx fy fz x y z radius mux muy muz 
2 1 -2.58143e-20 1.87078e-21 -7.06852e-08 0 0 -3 1 0 3.11277 0 
1 1 2.87821e-20 1.32411e-21 7.06852e-08 0 0 0 1 0 3.11277 0 
