ITEM: TIMESTEP
2
ITEM: NUMBER OF ATOMS
2
ITEM: BOX BOUNDS ff ff ff
-10 10
-10 10
-10 10
ITEM: ATOMS id type fx fy fz x y z radius mux muy muz 
2 1 -4.92295e-21 1.04395e-20 -5.4964e-08 0 0 -3.2 1 0 3.11781 0 
1 1 7.78107e-21 5.9701e-21 5.4964e-08 0 0 0 1 0 3.11781 0 
