ITEM: TIMESTEP
1
ITEM: NUMBER OF ATOMS
2
ITEM: BOX BOUNDS ff ff ff
-10 10
-10 10
-10 10
ITEM: ATOMS id type fx fy fz x y z radius mux muy muz 
2 1 -2.09413e-20 -3.81541e-21 -1.69875e-08 0 0 -3.6 1 0 3.12485 0 
1 1 -2.06531e-20 -8.2432e-21 1.69875e-08 0 0 0 1 0 3.12485 0 
