ITEM: TIMESTEP
0
ITEM: NUMBER OF ATOMS
2
ITEM: BOX BOUNDS ff ff ff
-10 10
-10 10
-10 10
ITEM: ATOMS id type fx fy fz x y z radius mux muy muz 
2 1 8.70802e-21 -1.36615e-20 -5.04589e-08 0 0 -2.7 1 0 3.10225 0 
1 1 2.75635e-20 1.17326e-20 5.04569e-08 0 0 0 1 0 3.10219 0 
