ITEM: TIMESTEP
1
ITEM: NUMBER OF ATOMS
2
ITEM: BOX BOUNDS ff ff ff
-10 10
-10 10
-10 10
ITEM: ATOMS id type fx fy fz x y z radius mux muy muz 
2 1 -7.68311e-21 -2.4071e-21 -1.52729e-08 0 0 -3.7 1 0 3.12616 0 
1 1 -1.08363e-20 -4.2834e-21 1.52729e-08 0 0 0 1 0 3.12616 0 
