ITEM: TIMESTEP
2
ITEM: NUMBER OF ATOMS
2
ITEM: BOX BOUNDS ff ff ff
-10 10
-10 10
-10 10
ITEM: ATOMS id type fx fy fz x y z radius mux muy muz 
2 1 0 0 8.72672e-08 0 0 -2.9 1 0 0 3.20735 
1 1 0 0 -8.72672e-08 0 0 0 1 0 0 3.20735 
