ITEM: TIMESTEP
0
ITEM: NUMBER OF ATOMS
2
ITEM: BOX BOUNDS ff ff ff
-10 10
-10 10
-10 10
ITEM: ATOMS id type fx fy fz x y z radius mux muy muz 
2 1 0 0 7.58959e-08 0 0 -3 1 0 0 3.20099 
1 1 0 0 -7.58959e-08 0 0 0 1 0 0 3.20087 
