ITEM: TIMESTEP
1
ITEM: NUMBER OF ATOMS
2
ITEM: BOX BOUNDS ff ff ff
-10 10
-10 10
-10 10
ITEM: ATOMS id type fx fy fz x y z radius mux muy muz 
2 1 0 0 1.37286e-07 0 0 -2.6 1 0 0 3.23358 
1 1 0 0 -1.37286e-07 0 0 0 1 0 0 3.23358 
