LIGGGHTS (Version LIGGGHTS-PUBLIC 3.8.0, compiled 2022-09-27-15:26:50 by anmol, git commit unknown)
### Static Packing
###
###
###
### This simulation is an attempt to establish a faster way of settling
### particles in a simulation domain. This is used as a starting file for other simulations
###
###
###
### Particle pos/vel are obtained at each timestep for visualization
### purposes, along with sequential images of the cad model.
###
###
### Eric updates beginning march 2020
### in.init.txt
###
### Particle initialization for  LMS Large Medium Small Particle Layering

### Initialization

## Preliminaries

units 	si
atom_style 	granular

# the product of the processors must equal P, the number of processors used when running the file: mpirun -np 4 ...
processors 	1 1 1

# periodic x boundaries, fixed y boundaries, fixed -z for floor and fixed shrink wrap for cieling
boundary 	p f fm

#LIGGGHTS-Public shouuld produce the same answers for any newton flag setting, besides round off
newton 	off

# communicate single - each processor acquires informaton for ghost patroms within a single distance of its sub domain - the default
# vel yes - communicate velocity info with ghost atoms
communicate 	single vel yes

hard_particles no

#read_restart	restart.static

## Declare domain

# -x +x -y +y -z +z : 2cm x, 1.11m y, 40cm z
# reg is the name of the region, block is the region type, unitx box means definie in box units instead of lattice
region	reg block -1.0 1.0 0.0 100.0 0.0 2.0 units box

# create_box creates a simulation box based on the specified region
# N = 3, number of atom types used in the simulation
create_box	 1 reg
Created orthogonal box = (-1 0 0) to (1 100 2)
  1 by 1 by 1 MPI processor grid

# neighbor skin style - atom pairs within a neighbor cutoff distance = force cutoff + skin distance, styele = bin
neighbor	 0.0625 bin	 # 1 mm, CHECK ON THIS / ASK TOM

# neigh_modify delay 0, this is the default, rebuild neighbor list every timestep
neigh_modify delay 0

## Material Property variables
#variable restiv equal 0.0
variable static_fric equal 0.3
variable rolling_fric equal 0
variable visc_damp equal 0
variable k_c equal 0
## Material properties
fix            m1 all property/global youngsModulus peratomtype 5e6
fix            m2 all property/global poissonsRatio peratomtype 0.3
#fix m3 all property/global coefficientRestitution peratomtypepair 1 ${restiv}
fix            m4 all property/global coefficientFriction peratomtypepair 1 ${static_fric}
fix            m4 all property/global coefficientFriction peratomtypepair 1 0.3
fix            m5 all property/global characteristicVelocity scalar .01
fix            m6 all property/global cohesionEnergyDensity peratomtypepair 1 ${k_c}
fix            m6 all property/global cohesionEnergyDensity peratomtypepair 1 0
fix	       m7 all property/global coefficientRollingFriction peratomtypepair 1 ${rolling_fric}
fix	       m7 all property/global coefficientRollingFriction peratomtypepair 1 0
fix	       m8 all property/global coefficientRollingViscousDamping peratomtypepair 1 ${visc_damp}
fix	       m8 all property/global coefficientRollingViscousDamping peratomtypepair 1 0

## Pair style
pair_style	gran model hertz tangential history cohesion sjkr rolling_friction epsd torsionTorque on
WARNING: 
	The contact model you specified is not located in any whitelist.
	Because of this the model will be run in an unoptimized version (increasing runtime by up to 20%).
	In order to optimize this model you have the following options:
		(i)  Run the genAutoExamplesWhitelist.sh script in your LIGGGHTS(R) source folder to automatically parse the input script
		(ii) Add the model combination by hand to your style_contact_model_user.whitelist that can be found in your LIGGGHTS(R) source folder
	If you perform one of the steps above LIGGGHTS(R) needs to be recompiled to generate the optimized code.

 (../contact_models.h:364)
pair_coeff	* *  # the asterisks set force field coeefficients for all atom types, but then no other args? ASK TOM

# timestep is 50 ns CHECK THIS
timestep	0.00005
variable	tstep equal 0.000005

# conserved - NVE - number, volume, and energy. the sum of KE and PE is conserved, T and P are unregulated
fix		1 all nve/sphere

# moon gravity defined in -z vector
#fix		2 all gravity 9.81 vector 0.0 0.0 -1.0

## Thermo settings
# thermo style custom says what thermo data we want printed at each thermo timestep - timestep, num atoms, kinetic energy, volume
thermo_style 	custom step atoms ke vol
# thermo output every 1000 timesteps
thermo		10000
# LIGGGHTS will ignore last particles and will not normalize against num atoms
thermo_modify	lost ignore norm no

## box walls - define simulation
# we do not need x walls since the bc are periodic
# place y walls at front and back of sim. later, front wall will be unfixed/refixed and given a velocity for a fewe timesteps, then set back to fixed wall - this is in place of Carlos' mesh wall. May need mesh wall later for partial wall impact
# place one z wall on the floor

fix		wall_y1 all wall/gran model hertz tangential history cohesion sjkr rolling_friction epsd primitive type 1 yplane 0.0 	# wall moves later
WARNING: 
	The contact model you specified is not located in any whitelist.
	Because of this the model will be run in an unoptimized version (increasing runtime by up to 20%).
	In order to optimize this model you have the following options:
		(i)  Run the genAutoExamplesWhitelist.sh script in your LIGGGHTS(R) source folder to automatically parse the input script
		(ii) Add the model combination by hand to your style_contact_model_user.whitelist that can be found in your LIGGGHTS(R) source folder
	If you perform one of the steps above LIGGGHTS(R) needs to be recompiled to generate the optimized code.

 (../contact_models.h:364)
fix		wall_y2 all wall/gran model hertz tangential history cohesion sjkr rolling_friction epsd primitive type 1 yplane 100.0 	# "endcap"
WARNING: 
	The contact model you specified is not located in any whitelist.
	Because of this the model will be run in an unoptimized version (increasing runtime by up to 20%).
	In order to optimize this model you have the following options:
		(i)  Run the genAutoExamplesWhitelist.sh script in your LIGGGHTS(R) source folder to automatically parse the input script
		(ii) Add the model combination by hand to your style_contact_model_user.whitelist that can be found in your LIGGGHTS(R) source folder
	If you perform one of the steps above LIGGGHTS(R) needs to be recompiled to generate the optimized code.

 (../contact_models.h:364)
fix		wall_z1 all wall/gran model hertz tangential history cohesion sjkr rolling_friction epsd primitive type 1 zplane 0 		# floor
WARNING: 
	The contact model you specified is not located in any whitelist.
	Because of this the model will be run in an unoptimized version (increasing runtime by up to 20%).
	In order to optimize this model you have the following options:
		(i)  Run the genAutoExamplesWhitelist.sh script in your LIGGGHTS(R) source folder to automatically parse the input script
		(ii) Add the model combination by hand to your style_contact_model_user.whitelist that can be found in your LIGGGHTS(R) source folder
	If you perform one of the steps above LIGGGHTS(R) needs to be recompiled to generate the optimized code.

 (../contact_models.h:364)
#fix             cad1 all mesh/surface file meshes/square_wall_45cm_3cmthick.stl type 2 scale .00099 move 0.01 0.45 -0.03 rotate axis 1. 0. 0. angle 90.

# particles and their distribution
# insert two particles, aligned in x and z but offset in y
create_atoms 1 single 0.0 50.0 1.0
Created 1 atoms
create_atoms 1 single 0.0 60.0 1.0
Created 1 atoms

# set atom velocities to be equal and opposite
set atom 1 vx 0.0 vy 10.0 vz 0.0
  1 settings made for vx
  1 settings made for vy
  1 settings made for vz
set atom 2 vx 0.0 vy -10.0 vz 0.0
  1 settings made for vx
  1 settings made for vy
  1 settings made for vz

fix ts_check all check/timestep/gran 100 0.1 0.1

# define output
# define loops
label	loop
variable	r loop 6 100 # 100

## compute the array of overlaps, which will contain p-id 1, p-id 2, and their overlap [m]
#compute deltas all pair/gran/local id delta

# define output - t=0 and t=end
dump dmp all custom 30000 post/rest_$r_*.post id type x y z vx vy vz radius fx fy fz mass omegax omegay omegaz tqx tqy tqz
dump dmp all custom 30000 post/rest_6_*.post id type x y z vx vy vz radius fx fy fz mass omegax omegay omegaz tqx tqy tqz
#dump dmp_local all local 1000 post_computes/dump_$r_computes*.post c_deltas[1] c_deltas[2] c_deltas[4]

# calculate restitution
variable restiv equal (${r})/100
variable restiv equal (6)/100
print	"Restitution coefficient = ${restiv}"
Restitution coefficient = 0.06


# reset initial position and velocity
#create_atoms 1 single 0.0 50.0 0.0
#create_atoms 2 single 0.0 60.0 0.0

#set atom 1 x 0.0 y 50.0 z 0.0
#set atom 2 x 0.0 y 60.0 z 0.0

group v1 id 1
1 atoms in group v1
group v2 id 2
1 atoms in group v2

# for some reason, setting the positions in the way above (set atom atomID) changes the forces to NaN
# need to use setting velocites by group instead
set group v1 y 50.0
  1 settings made for y
set group v2 y 60.0
  1 settings made for y

set group v1 vx 0.0 vy 10.0 vz 0.0
  1 settings made for vx
  1 settings made for vy
  1 settings made for vz
set group v2 vx 0.0 vy -10.0 vz 0.0
  1 settings made for vx
  1 settings made for vy
  1 settings made for vz
#velocity v1 set 0.0 10.0 0.0 loop all
#velocity v2 set 0.0 -10.0 0.0 loop all

fix m3 all property/global coefficientRestitution peratomtypepair 1 ${restiv}
fix m3 all property/global coefficientRestitution peratomtypepair 1 0.06

reset_timestep 0
run	30000
Setting up run at Sat Feb 25 22:01:45 2023

Memory usage per processor = 12.0781 Mbytes
    Step    Atoms         KinEng         Volume 
       0        2      52.359878            400 
   10000        2     0.17047637            400 
   20000        2     0.17047637            400 
   30000        2     0.17047637            400 
Loop time of 0.0363296 on 1 procs for 30000 steps with 2 atoms, finish time Sat Feb 25 22:01:45 2023


Pair  time (%) = 0.0118236 (32.5455)
Neigh time (%) = 0.00170522 (4.69374)
Comm  time (%) = 0.00563832 (15.5199)
Outpt time (%) = 0.000211701 (0.582723)
Other time (%) = 0.0169507 (46.6582)

Nlocal:    2 ave 2 max 2 min
Histogram: 1 0 0 0 0 0 0 0 0 0
Nghost:    4 ave 4 max 4 min
Histogram: 1 0 0 0 0 0 0 0 0 0
Neighs:    0 ave 0 max 0 min
Histogram: 1 0 0 0 0 0 0 0 0 0

Total # of neighbors = 0
Ave neighs/atom = 0
Neighbor list builds = 162
Dangerous builds = 0
unfix	m3
next r
undump	dmp
#undump dmp_local
#uncompute deltas
jump in.normalImpact loop
variable	r loop 6 100 # 100

## compute the array of overlaps, which will contain p-id 1, p-id 2, and their overlap [m]
#compute deltas all pair/gran/local id delta

# define output - t=0 and t=end
dump dmp all custom 30000 post/rest_$r_*.post id type x y z vx vy vz radius fx fy fz mass omegax omegay omegaz tqx tqy tqz
dump dmp all custom 30000 post/rest_7_*.post id type x y z vx vy vz radius fx fy fz mass omegax omegay omegaz tqx tqy tqz
#dump dmp_local all local 1000 post_computes/dump_$r_computes*.post c_deltas[1] c_deltas[2] c_deltas[4]

# calculate restitution
variable restiv equal (${r})/100
variable restiv equal (7)/100
print	"Restitution coefficient = ${restiv}"
Restitution coefficient = 0.07


# reset initial position and velocity
#create_atoms 1 single 0.0 50.0 0.0
#create_atoms 2 single 0.0 60.0 0.0

#set atom 1 x 0.0 y 50.0 z 0.0
#set atom 2 x 0.0 y 60.0 z 0.0

group v1 id 1
1 atoms in group v1
group v2 id 2
1 atoms in group v2

# for some reason, setting the positions in the way above (set atom atomID) changes the forces to NaN
# need to use setting velocites by group instead
set group v1 y 50.0
  1 settings made for y
set group v2 y 60.0
  1 settings made for y

set group v1 vx 0.0 vy 10.0 vz 0.0
  1 settings made for vx
  1 settings made for vy
  1 settings made for vz
set group v2 vx 0.0 vy -10.0 vz 0.0
  1 settings made for vx
  1 settings made for vy
  1 settings made for vz
#velocity v1 set 0.0 10.0 0.0 loop all
#velocity v2 set 0.0 -10.0 0.0 loop all

fix m3 all property/global coefficientRestitution peratomtypepair 1 ${restiv}
fix m3 all property/global coefficientRestitution peratomtypepair 1 0.07

reset_timestep 0
run	30000
Setting up run at Sat Feb 25 22:01:45 2023

Memory usage per processor = 12.0781 Mbytes
    Step    Atoms         KinEng         Volume 
       0        2      52.359878            400 
   10000        2     0.23594596            400 
   20000        2     0.23594596            400 
   30000        2     0.23594596            400 
Loop time of 0.0334215 on 1 procs for 30000 steps with 2 atoms, finish time Sat Feb 25 22:01:46 2023


Pair  time (%) = 0.00953046 (28.516)
Neigh time (%) = 0.00177045 (5.29733)
Comm  time (%) = 0.00540431 (16.1702)
Outpt time (%) = 0.000155279 (0.464608)
Other time (%) = 0.016561 (49.5519)

Nlocal:    2 ave 2 max 2 min
Histogram: 1 0 0 0 0 0 0 0 0 0
Nghost:    4 ave 4 max 4 min
Histogram: 1 0 0 0 0 0 0 0 0 0
Neighs:    0 ave 0 max 0 min
Histogram: 1 0 0 0 0 0 0 0 0 0

Total # of neighbors = 0
Ave neighs/atom = 0
Neighbor list builds = 165
Dangerous builds = 0
unfix	m3
next r
undump	dmp
#undump dmp_local
#uncompute deltas
jump in.normalImpact loop
variable	r loop 6 100 # 100

## compute the array of overlaps, which will contain p-id 1, p-id 2, and their overlap [m]
#compute deltas all pair/gran/local id delta

# define output - t=0 and t=end
dump dmp all custom 30000 post/rest_$r_*.post id type x y z vx vy vz radius fx fy fz mass omegax omegay omegaz tqx tqy tqz
dump dmp all custom 30000 post/rest_8_*.post id type x y z vx vy vz radius fx fy fz mass omegax omegay omegaz tqx tqy tqz
#dump dmp_local all local 1000 post_computes/dump_$r_computes*.post c_deltas[1] c_deltas[2] c_deltas[4]

# calculate restitution
variable restiv equal (${r})/100
variable restiv equal (8)/100
print	"Restitution coefficient = ${restiv}"
Restitution coefficient = 0.08


# reset initial position and velocity
#create_atoms 1 single 0.0 50.0 0.0
#create_atoms 2 single 0.0 60.0 0.0

#set atom 1 x 0.0 y 50.0 z 0.0
#set atom 2 x 0.0 y 60.0 z 0.0

group v1 id 1
1 atoms in group v1
group v2 id 2
1 atoms in group v2

# for some reason, setting the positions in the way above (set atom atomID) changes the forces to NaN
# need to use setting velocites by group instead
set group v1 y 50.0
  1 settings made for y
set group v2 y 60.0
  1 settings made for y

set group v1 vx 0.0 vy 10.0 vz 0.0
  1 settings made for vx
  1 settings made for vy
  1 settings made for vz
set group v2 vx 0.0 vy -10.0 vz 0.0
  1 settings made for vx
  1 settings made for vy
  1 settings made for vz
#velocity v1 set 0.0 10.0 0.0 loop all
#velocity v2 set 0.0 -10.0 0.0 loop all

fix m3 all property/global coefficientRestitution peratomtypepair 1 ${restiv}
fix m3 all property/global coefficientRestitution peratomtypepair 1 0.08

reset_timestep 0
run	30000
Setting up run at Sat Feb 25 22:01:46 2023

Memory usage per processor = 12.0781 Mbytes
    Step    Atoms         KinEng         Volume 
       0        2      52.359878            400 
   10000        2     0.31259982            400 
   20000        2     0.31259982            400 
   30000        2     0.31259982            400 
Loop time of 0.0253768 on 1 procs for 30000 steps with 2 atoms, finish time Sat Feb 25 22:01:46 2023


Pair  time (%) = 0.00708201 (27.9074)
Neigh time (%) = 0.00118198 (4.65772)
Comm  time (%) = 0.00409205 (16.1252)
Outpt time (%) = 0.000171371 (0.675306)
Other time (%) = 0.0128494 (50.6343)

Nlocal:    2 ave 2 max 2 min
Histogram: 1 0 0 0 0 0 0 0 0 0
Nghost:    4 ave 4 max 4 min
Histogram: 1 0 0 0 0 0 0 0 0 0
Neighs:    0 ave 0 max 0 min
Histogram: 1 0 0 0 0 0 0 0 0 0

Total # of neighbors = 0
Ave neighs/atom = 0
Neighbor list builds = 168
Dangerous builds = 0
unfix	m3
next r
undump	dmp
#undump dmp_local
#uncompute deltas
jump in.normalImpact loop
variable	r loop 6 100 # 100

## compute the array of overlaps, which will contain p-id 1, p-id 2, and their overlap [m]
#compute deltas all pair/gran/local id delta

# define output - t=0 and t=end
dump dmp all custom 30000 post/rest_$r_*.post id type x y z vx vy vz radius fx fy fz mass omegax omegay omegaz tqx tqy tqz
dump dmp all custom 30000 post/rest_9_*.post id type x y z vx vy vz radius fx fy fz mass omegax omegay omegaz tqx tqy tqz
#dump dmp_local all local 1000 post_computes/dump_$r_computes*.post c_deltas[1] c_deltas[2] c_deltas[4]

# calculate restitution
variable restiv equal (${r})/100
variable restiv equal (9)/100
print	"Restitution coefficient = ${restiv}"
Restitution coefficient = 0.09


# reset initial position and velocity
#create_atoms 1 single 0.0 50.0 0.0
#create_atoms 2 single 0.0 60.0 0.0

#set atom 1 x 0.0 y 50.0 z 0.0
#set atom 2 x 0.0 y 60.0 z 0.0

group v1 id 1
1 atoms in group v1
group v2 id 2
1 atoms in group v2

# for some reason, setting the positions in the way above (set atom atomID) changes the forces to NaN
# need to use setting velocites by group instead
set group v1 y 50.0
  1 settings made for y
set group v2 y 60.0
  1 settings made for y

set group v1 vx 0.0 vy 10.0 vz 0.0
  1 settings made for vx
  1 settings made for vy
  1 settings made for vz
set group v2 vx 0.0 vy -10.0 vz 0.0
  1 settings made for vx
  1 settings made for vy
  1 settings made for vz
#velocity v1 set 0.0 10.0 0.0 loop all
#velocity v2 set 0.0 -10.0 0.0 loop all

fix m3 all property/global coefficientRestitution peratomtypepair 1 ${restiv}
fix m3 all property/global coefficientRestitution peratomtypepair 1 0.09

reset_timestep 0
run	30000
Setting up run at Sat Feb 25 22:01:46 2023

Memory usage per processor = 12.0781 Mbytes
    Step    Atoms         KinEng         Volume 
       0        2      52.359878            400 
   10000        2     0.40032377            400 
   20000        2     0.40032377            400 
   30000        2     0.40032377            400 
Loop time of 0.0322512 on 1 procs for 30000 steps with 2 atoms, finish time Sat Feb 25 22:01:46 2023


Pair  time (%) = 0.00910926 (28.2447)
Neigh time (%) = 0.00134197 (4.16098)
Comm  time (%) = 0.00541192 (16.7805)
Outpt time (%) = 0.000213111 (0.660784)
Other time (%) = 0.016175 (50.1531)

Nlocal:    2 ave 2 max 2 min
Histogram: 1 0 0 0 0 0 0 0 0 0
Nghost:    4 ave 4 max 4 min
Histogram: 1 0 0 0 0 0 0 0 0 0
Neighs:    0 ave 0 max 0 min
Histogram: 1 0 0 0 0 0 0 0 0 0

Total # of neighbors = 0
Ave neighs/atom = 0
Neighbor list builds = 172
Dangerous builds = 0
unfix	m3
next r
undump	dmp
#undump dmp_local
#uncompute deltas
jump in.normalImpact loop
variable	r loop 6 100 # 100

## compute the array of overlaps, which will contain p-id 1, p-id 2, and their overlap [m]
#compute deltas all pair/gran/local id delta

# define output - t=0 and t=end
dump dmp all custom 30000 post/rest_$r_*.post id type x y z vx vy vz radius fx fy fz mass omegax omegay omegaz tqx tqy tqz
dump dmp all custom 30000 post/rest_10_*.post id type x y z vx vy vz radius fx fy fz mass omegax omegay omegaz tqx tqy tqz
#dump dmp_local all local 1000 post_computes/dump_$r_computes*.post c_deltas[1] c_deltas[2] c_deltas[4]

# calculate restitution
variable restiv equal (${r})/100
variable restiv equal (10)/100
print	"Restitution coefficient = ${restiv}"
Restitution coefficient = 0.1


# reset initial position and velocity
#create_atoms 1 single 0.0 50.0 0.0
#create_atoms 2 single 0.0 60.0 0.0

#set atom 1 x 0.0 y 50.0 z 0.0
#set atom 2 x 0.0 y 60.0 z 0.0

group v1 id 1
1 atoms in group v1
group v2 id 2
1 atoms in group v2

# for some reason, setting the positions in the way above (set atom atomID) changes the forces to NaN
# need to use setting velocites by group instead
set group v1 y 50.0
  1 settings made for y
set group v2 y 60.0
  1 settings made for y

set group v1 vx 0.0 vy 10.0 vz 0.0
  1 settings made for vx
  1 settings made for vy
  1 settings made for vz
set group v2 vx 0.0 vy -10.0 vz 0.0
  1 settings made for vx
  1 settings made for vy
  1 settings made for vz
#velocity v1 set 0.0 10.0 0.0 loop all
#velocity v2 set 0.0 -10.0 0.0 loop all

fix m3 all property/global coefficientRestitution peratomtypepair 1 ${restiv}
fix m3 all property/global coefficientRestitution peratomtypepair 1 0.1

reset_timestep 0
run	30000
Setting up run at Sat Feb 25 22:01:46 2023

Memory usage per processor = 12.0781 Mbytes
    Step    Atoms         KinEng         Volume 
       0        2      52.359878            400 
   10000        2     0.49306327            400 
   20000        2     0.49306327            400 
   30000        2     0.49306327            400 
Loop time of 0.033057 on 1 procs for 30000 steps with 2 atoms, finish time Sat Feb 25 22:01:46 2023


Pair  time (%) = 0.00911487 (27.5732)
Neigh time (%) = 0.00165987 (5.02124)
Comm  time (%) = 0.00549006 (16.6078)
Outpt time (%) = 0.000267967 (0.81062)
Other time (%) = 0.0165243 (49.9871)

Nlocal:    2 ave 2 max 2 min
Histogram: 1 0 0 0 0 0 0 0 0 0
Nghost:    4 ave 4 max 4 min
Histogram: 1 0 0 0 0 0 0 0 0 0
Neighs:    0 ave 0 max 0 min
Histogram: 1 0 0 0 0 0 0 0 0 0

Total # of neighbors = 0
Ave neighs/atom = 0
Neighbor list builds = 175
Dangerous builds = 0
unfix	m3
next r
undump	dmp
#undump dmp_local
#uncompute deltas
jump in.normalImpact loop
variable	r loop 6 100 # 100

## compute the array of overlaps, which will contain p-id 1, p-id 2, and their overlap [m]
#compute deltas all pair/gran/local id delta

# define output - t=0 and t=end
dump dmp all custom 30000 post/rest_$r_*.post id type x y z vx vy vz radius fx fy fz mass omegax omegay omegaz tqx tqy tqz
dump dmp all custom 30000 post/rest_11_*.post id type x y z vx vy vz radius fx fy fz mass omegax omegay omegaz tqx tqy tqz
#dump dmp_local all local 1000 post_computes/dump_$r_computes*.post c_deltas[1] c_deltas[2] c_deltas[4]

# calculate restitution
variable restiv equal (${r})/100
variable restiv equal (11)/100
print	"Restitution coefficient = ${restiv}"
Restitution coefficient = 0.11


# reset initial position and velocity
#create_atoms 1 single 0.0 50.0 0.0
#create_atoms 2 single 0.0 60.0 0.0

#set atom 1 x 0.0 y 50.0 z 0.0
#set atom 2 x 0.0 y 60.0 z 0.0

group v1 id 1
1 atoms in group v1
group v2 id 2
1 atoms in group v2

# for some reason, setting the positions in the way above (set atom atomID) changes the forces to NaN
# need to use setting velocites by group instead
set group v1 y 50.0
  1 settings made for y
set group v2 y 60.0
  1 settings made for y

set group v1 vx 0.0 vy 10.0 vz 0.0
  1 settings made for vx
  1 settings made for vy
  1 settings made for vz
set group v2 vx 0.0 vy -10.0 vz 0.0
  1 settings made for vx
  1 settings made for vy
  1 settings made for vz
#velocity v1 set 0.0 10.0 0.0 loop all
#velocity v2 set 0.0 -10.0 0.0 loop all

fix m3 all property/global coefficientRestitution peratomtypepair 1 ${restiv}
fix m3 all property/global coefficientRestitution peratomtypepair 1 0.11

reset_timestep 0
run	30000
Setting up run at Sat Feb 25 22:01:46 2023

Memory usage per processor = 12.0781 Mbytes
    Step    Atoms         KinEng         Volume 
       0        2      52.359878            400 
   10000        2     0.60014978            400 
   20000        2     0.60014978            400 
   30000        2     0.60014978            400 
Loop time of 0.0386223 on 1 procs for 30000 steps with 2 atoms, finish time Sat Feb 25 22:01:46 2023


Pair  time (%) = 0.0102308 (26.4894)
Neigh time (%) = 0.00226102 (5.85418)
Comm  time (%) = 0.00647922 (16.7759)
Outpt time (%) = 0.000261269 (0.676472)
Other time (%) = 0.01939 (50.2041)

Nlocal:    2 ave 2 max 2 min
Histogram: 1 0 0 0 0 0 0 0 0 0
Nghost:    4 ave 4 max 4 min
Histogram: 1 0 0 0 0 0 0 0 0 0
Neighs:    0 ave 0 max 0 min
Histogram: 1 0 0 0 0 0 0 0 0 0

Total # of neighbors = 0
Ave neighs/atom = 0
Neighbor list builds = 178
Dangerous builds = 0
unfix	m3
next r
undump	dmp
#undump dmp_local
#uncompute deltas
jump in.normalImpact loop
variable	r loop 6 100 # 100

## compute the array of overlaps, which will contain p-id 1, p-id 2, and their overlap [m]
#compute deltas all pair/gran/local id delta

# define output - t=0 and t=end
dump dmp all custom 30000 post/rest_$r_*.post id type x y z vx vy vz radius fx fy fz mass omegax omegay omegaz tqx tqy tqz
dump dmp all custom 30000 post/rest_12_*.post id type x y z vx vy vz radius fx fy fz mass omegax omegay omegaz tqx tqy tqz
#dump dmp_local all local 1000 post_computes/dump_$r_computes*.post c_deltas[1] c_deltas[2] c_deltas[4]

# calculate restitution
variable restiv equal (${r})/100
variable restiv equal (12)/100
print	"Restitution coefficient = ${restiv}"
Restitution coefficient = 0.12


# reset initial position and velocity
#create_atoms 1 single 0.0 50.0 0.0
#create_atoms 2 single 0.0 60.0 0.0

#set atom 1 x 0.0 y 50.0 z 0.0
#set atom 2 x 0.0 y 60.0 z 0.0

group v1 id 1
1 atoms in group v1
group v2 id 2
1 atoms in group v2

# for some reason, setting the positions in the way above (set atom atomID) changes the forces to NaN
# need to use setting velocites by group instead
set group v1 y 50.0
  1 settings made for y
set group v2 y 60.0
  1 settings made for y

set group v1 vx 0.0 vy 10.0 vz 0.0
  1 settings made for vx
  1 settings made for vy
  1 settings made for vz
set group v2 vx 0.0 vy -10.0 vz 0.0
  1 settings made for vx
  1 settings made for vy
  1 settings made for vz
#velocity v1 set 0.0 10.0 0.0 loop all
#velocity v2 set 0.0 -10.0 0.0 loop all

fix m3 all property/global coefficientRestitution peratomtypepair 1 ${restiv}
fix m3 all property/global coefficientRestitution peratomtypepair 1 0.12

reset_timestep 0
run	30000
Setting up run at Sat Feb 25 22:01:46 2023

Memory usage per processor = 12.0781 Mbytes
    Step    Atoms         KinEng         Volume 
       0        2      52.359878            400 
   10000        2     0.71775098            400 
   20000        2     0.71775098            400 
   30000        2     0.71775098            400 
Loop time of 0.0374108 on 1 procs for 30000 steps with 2 atoms, finish time Sat Feb 25 22:01:46 2023


Pair  time (%) = 0.0101521 (27.137)
Neigh time (%) = 0.00221569 (5.92261)
Comm  time (%) = 0.006174 (16.5033)
Outpt time (%) = 0.000204651 (0.547038)
Other time (%) = 0.0186643 (49.8901)

Nlocal:    2 ave 2 max 2 min
Histogram: 1 0 0 0 0 0 0 0 0 0
Nghost:    4 ave 4 max 4 min
Histogram: 1 0 0 0 0 0 0 0 0 0
Neighs:    0 ave 0 max 0 min
Histogram: 1 0 0 0 0 0 0 0 0 0

Total # of neighbors = 0
Ave neighs/atom = 0
Neighbor list builds = 182
Dangerous builds = 0
unfix	m3
next r
undump	dmp
#undump dmp_local
#uncompute deltas
jump in.normalImpact loop
variable	r loop 6 100 # 100

## compute the array of overlaps, which will contain p-id 1, p-id 2, and their overlap [m]
#compute deltas all pair/gran/local id delta

# define output - t=0 and t=end
dump dmp all custom 30000 post/rest_$r_*.post id type x y z vx vy vz radius fx fy fz mass omegax omegay omegaz tqx tqy tqz
dump dmp all custom 30000 post/rest_13_*.post id type x y z vx vy vz radius fx fy fz mass omegax omegay omegaz tqx tqy tqz
#dump dmp_local all local 1000 post_computes/dump_$r_computes*.post c_deltas[1] c_deltas[2] c_deltas[4]

# calculate restitution
variable restiv equal (${r})/100
variable restiv equal (13)/100
print	"Restitution coefficient = ${restiv}"
Restitution coefficient = 0.13


# reset initial position and velocity
#create_atoms 1 single 0.0 50.0 0.0
#create_atoms 2 single 0.0 60.0 0.0

#set atom 1 x 0.0 y 50.0 z 0.0
#set atom 2 x 0.0 y 60.0 z 0.0

group v1 id 1
1 atoms in group v1
group v2 id 2
1 atoms in group v2

# for some reason, setting the positions in the way above (set atom atomID) changes the forces to NaN
# need to use setting velocites by group instead
set group v1 y 50.0
  1 settings made for y
set group v2 y 60.0
  1 settings made for y

set group v1 vx 0.0 vy 10.0 vz 0.0
  1 settings made for vx
  1 settings made for vy
  1 settings made for vz
set group v2 vx 0.0 vy -10.0 vz 0.0
  1 settings made for vx
  1 settings made for vy
  1 settings made for vz
#velocity v1 set 0.0 10.0 0.0 loop all
#velocity v2 set 0.0 -10.0 0.0 loop all

fix m3 all property/global coefficientRestitution peratomtypepair 1 ${restiv}
fix m3 all property/global coefficientRestitution peratomtypepair 1 0.13

reset_timestep 0
run	30000
Setting up run at Sat Feb 25 22:01:46 2023

Memory usage per processor = 12.0781 Mbytes
    Step    Atoms         KinEng         Volume 
       0        2      52.359878            400 
   10000        2     0.84964337            400 
   20000        2     0.84964337            400 
   30000        2     0.84964337            400 
Loop time of 0.0382688 on 1 procs for 30000 steps with 2 atoms, finish time Sat Feb 25 22:01:46 2023


Pair  time (%) = 0.010708 (27.981)
Neigh time (%) = 0.0021236 (5.54917)
Comm  time (%) = 0.00625473 (16.3442)
Outpt time (%) = 0.000190937 (0.498937)
Other time (%) = 0.0189915 (49.6267)

Nlocal:    2 ave 2 max 2 min
Histogram: 1 0 0 0 0 0 0 0 0 0
Nghost:    4 ave 4 max 4 min
Histogram: 1 0 0 0 0 0 0 0 0 0
Neighs:    0 ave 0 max 0 min
Histogram: 1 0 0 0 0 0 0 0 0 0

Total # of neighbors = 0
Ave neighs/atom = 0
Neighbor list builds = 185
Dangerous builds = 0
unfix	m3
next r
undump	dmp
#undump dmp_local
#uncompute deltas
jump in.normalImpact loop
variable	r loop 6 100 # 100

## compute the array of overlaps, which will contain p-id 1, p-id 2, and their overlap [m]
#compute deltas all pair/gran/local id delta

# define output - t=0 and t=end
dump dmp all custom 30000 post/rest_$r_*.post id type x y z vx vy vz radius fx fy fz mass omegax omegay omegaz tqx tqy tqz
dump dmp all custom 30000 post/rest_14_*.post id type x y z vx vy vz radius fx fy fz mass omegax omegay omegaz tqx tqy tqz
#dump dmp_local all local 1000 post_computes/dump_$r_computes*.post c_deltas[1] c_deltas[2] c_deltas[4]

# calculate restitution
variable restiv equal (${r})/100
variable restiv equal (14)/100
print	"Restitution coefficient = ${restiv}"
Restitution coefficient = 0.14


# reset initial position and velocity
#create_atoms 1 single 0.0 50.0 0.0
#create_atoms 2 single 0.0 60.0 0.0

#set atom 1 x 0.0 y 50.0 z 0.0
#set atom 2 x 0.0 y 60.0 z 0.0

group v1 id 1
1 atoms in group v1
group v2 id 2
1 atoms in group v2

# for some reason, setting the positions in the way above (set atom atomID) changes the forces to NaN
# need to use setting velocites by group instead
set group v1 y 50.0
  1 settings made for y
set group v2 y 60.0
  1 settings made for y

set group v1 vx 0.0 vy 10.0 vz 0.0
  1 settings made for vx
  1 settings made for vy
  1 settings made for vz
set group v2 vx 0.0 vy -10.0 vz 0.0
  1 settings made for vx
  1 settings made for vy
  1 settings made for vz
#velocity v1 set 0.0 10.0 0.0 loop all
#velocity v2 set 0.0 -10.0 0.0 loop all

fix m3 all property/global coefficientRestitution peratomtypepair 1 ${restiv}
fix m3 all property/global coefficientRestitution peratomtypepair 1 0.14

reset_timestep 0
run	30000
Setting up run at Sat Feb 25 22:01:46 2023

Memory usage per processor = 12.0781 Mbytes
    Step    Atoms         KinEng         Volume 
       0        2      52.359878            400 
   10000        2          1.001            400 
   20000        2          1.001            400 
   30000        2          1.001            400 
Loop time of 0.0315165 on 1 procs for 30000 steps with 2 atoms, finish time Sat Feb 25 22:01:46 2023


Pair  time (%) = 0.00866446 (27.4918)
Neigh time (%) = 0.00175644 (5.57308)
Comm  time (%) = 0.00507135 (16.0911)
Outpt time (%) = 0.000213729 (0.678149)
Other time (%) = 0.0158106 (50.1659)

Nlocal:    2 ave 2 max 2 min
Histogram: 1 0 0 0 0 0 0 0 0 0
Nghost:    4 ave 4 max 4 min
Histogram: 1 0 0 0 0 0 0 0 0 0
Neighs:    0 ave 0 max 0 min
Histogram: 1 0 0 0 0 0 0 0 0 0

Total # of neighbors = 0
Ave neighs/atom = 0
Neighbor list builds = 189
Dangerous builds = 0
unfix	m3
next r
undump	dmp
#undump dmp_local
#uncompute deltas
jump in.normalImpact loop
variable	r loop 6 100 # 100

## compute the array of overlaps, which will contain p-id 1, p-id 2, and their overlap [m]
#compute deltas all pair/gran/local id delta

# define output - t=0 and t=end
dump dmp all custom 30000 post/rest_$r_*.post id type x y z vx vy vz radius fx fy fz mass omegax omegay omegaz tqx tqy tqz
dump dmp all custom 30000 post/rest_15_*.post id type x y z vx vy vz radius fx fy fz mass omegax omegay omegaz tqx tqy tqz
#dump dmp_local all local 1000 post_computes/dump_$r_computes*.post c_deltas[1] c_deltas[2] c_deltas[4]

# calculate restitution
variable restiv equal (${r})/100
variable restiv equal (15)/100
print	"Restitution coefficient = ${restiv}"
Restitution coefficient = 0.15


# reset initial position and velocity
#create_atoms 1 single 0.0 50.0 0.0
#create_atoms 2 single 0.0 60.0 0.0

#set atom 1 x 0.0 y 50.0 z 0.0
#set atom 2 x 0.0 y 60.0 z 0.0

group v1 id 1
1 atoms in group v1
group v2 id 2
1 atoms in group v2

# for some reason, setting the positions in the way above (set atom atomID) changes the forces to NaN
# need to use setting velocites by group instead
set group v1 y 50.0
  1 settings made for y
set group v2 y 60.0
  1 settings made for y

set group v1 vx 0.0 vy 10.0 vz 0.0
  1 settings made for vx
  1 settings made for vy
  1 settings made for vz
set group v2 vx 0.0 vy -10.0 vz 0.0
  1 settings made for vx
  1 settings made for vy
  1 settings made for vz
#velocity v1 set 0.0 10.0 0.0 loop all
#velocity v2 set 0.0 -10.0 0.0 loop all

fix m3 all property/global coefficientRestitution peratomtypepair 1 ${restiv}
fix m3 all property/global coefficientRestitution peratomtypepair 1 0.15

reset_timestep 0
run	30000
Setting up run at Sat Feb 25 22:01:46 2023

Memory usage per processor = 12.0781 Mbytes
    Step    Atoms         KinEng         Volume 
       0        2      52.359878            400 
   10000        2      1.1415794            400 
   20000        2      1.1415794            400 
   30000        2      1.1415794            400 
Loop time of 0.0377101 on 1 procs for 30000 steps with 2 atoms, finish time Sat Feb 25 22:01:46 2023


Pair  time (%) = 0.0104194 (27.6302)
Neigh time (%) = 0.00206423 (5.47394)
Comm  time (%) = 0.00624019 (16.5478)
Outpt time (%) = 0.000209835 (0.556442)
Other time (%) = 0.0187765 (49.7917)

Nlocal:    2 ave 2 max 2 min
Histogram: 1 0 0 0 0 0 0 0 0 0
Nghost:    4 ave 4 max 4 min
Histogram: 1 0 0 0 0 0 0 0 0 0
Neighs:    0 ave 0 max 0 min
Histogram: 1 0 0 0 0 0 0 0 0 0

Total # of neighbors = 0
Ave neighs/atom = 0
Neighbor list builds = 192
Dangerous builds = 0
unfix	m3
next r
undump	dmp
#undump dmp_local
#uncompute deltas
jump in.normalImpact loop
variable	r loop 6 100 # 100

## compute the array of overlaps, which will contain p-id 1, p-id 2, and their overlap [m]
#compute deltas all pair/gran/local id delta

# define output - t=0 and t=end
dump dmp all custom 30000 post/rest_$r_*.post id type x y z vx vy vz radius fx fy fz mass omegax omegay omegaz tqx tqy tqz
dump dmp all custom 30000 post/rest_16_*.post id type x y z vx vy vz radius fx fy fz mass omegax omegay omegaz tqx tqy tqz
#dump dmp_local all local 1000 post_computes/dump_$r_computes*.post c_deltas[1] c_deltas[2] c_deltas[4]

# calculate restitution
variable restiv equal (${r})/100
variable restiv equal (16)/100
print	"Restitution coefficient = ${restiv}"
Restitution coefficient = 0.16


# reset initial position and velocity
#create_atoms 1 single 0.0 50.0 0.0
#create_atoms 2 single 0.0 60.0 0.0

#set atom 1 x 0.0 y 50.0 z 0.0
#set atom 2 x 0.0 y 60.0 z 0.0

group v1 id 1
1 atoms in group v1
group v2 id 2
1 atoms in group v2

# for some reason, setting the positions in the way above (set atom atomID) changes the forces to NaN
# need to use setting velocites by group instead
set group v1 y 50.0
  1 settings made for y
set group v2 y 60.0
  1 settings made for y

set group v1 vx 0.0 vy 10.0 vz 0.0
  1 settings made for vx
  1 settings made for vy
  1 settings made for vz
set group v2 vx 0.0 vy -10.0 vz 0.0
  1 settings made for vx
  1 settings made for vy
  1 settings made for vz
#velocity v1 set 0.0 10.0 0.0 loop all
#velocity v2 set 0.0 -10.0 0.0 loop all

fix m3 all property/global coefficientRestitution peratomtypepair 1 ${restiv}
fix m3 all property/global coefficientRestitution peratomtypepair 1 0.16

reset_timestep 0
run	30000
Setting up run at Sat Feb 25 22:01:46 2023

Memory usage per processor = 12.0781 Mbytes
    Step    Atoms         KinEng         Volume 
       0        2      52.359878            400 
   10000        2      1.2967323            400 
   20000        2      1.2967323            400 
   30000        2      1.2967323            400 
Loop time of 0.0348826 on 1 procs for 30000 steps with 2 atoms, finish time Sat Feb 25 22:01:46 2023


Pair  time (%) = 0.00926888 (26.5716)
Neigh time (%) = 0.00235704 (6.75705)
Comm  time (%) = 0.00570283 (16.3486)
Outpt time (%) = 0.000216233 (0.619888)
Other time (%) = 0.0173376 (49.7028)

Nlocal:    2 ave 2 max 2 min
Histogram: 1 0 0 0 0 0 0 0 0 0
Nghost:    4 ave 4 max 4 min
Histogram: 1 0 0 0 0 0 0 0 0 0
Neighs:    0 ave 0 max 0 min
Histogram: 1 0 0 0 0 0 0 0 0 0

Total # of neighbors = 0
Ave neighs/atom = 0
Neighbor list builds = 195
Dangerous builds = 0
unfix	m3
next r
undump	dmp
#undump dmp_local
#uncompute deltas
jump in.normalImpact loop
variable	r loop 6 100 # 100

## compute the array of overlaps, which will contain p-id 1, p-id 2, and their overlap [m]
#compute deltas all pair/gran/local id delta

# define output - t=0 and t=end
dump dmp all custom 30000 post/rest_$r_*.post id type x y z vx vy vz radius fx fy fz mass omegax omegay omegaz tqx tqy tqz
dump dmp all custom 30000 post/rest_17_*.post id type x y z vx vy vz radius fx fy fz mass omegax omegay omegaz tqx tqy tqz
#dump dmp_local all local 1000 post_computes/dump_$r_computes*.post c_deltas[1] c_deltas[2] c_deltas[4]

# calculate restitution
variable restiv equal (${r})/100
variable restiv equal (17)/100
print	"Restitution coefficient = ${restiv}"
Restitution coefficient = 0.17


# reset initial position and velocity
#create_atoms 1 single 0.0 50.0 0.0
#create_atoms 2 single 0.0 60.0 0.0

#set atom 1 x 0.0 y 50.0 z 0.0
#set atom 2 x 0.0 y 60.0 z 0.0

group v1 id 1
1 atoms in group v1
group v2 id 2
1 atoms in group v2

# for some reason, setting the positions in the way above (set atom atomID) changes the forces to NaN
# need to use setting velocites by group instead
set group v1 y 50.0
  1 settings made for y
set group v2 y 60.0
  1 settings made for y

set group v1 vx 0.0 vy 10.0 vz 0.0
  1 settings made for vx
  1 settings made for vy
  1 settings made for vz
set group v2 vx 0.0 vy -10.0 vz 0.0
  1 settings made for vx
  1 settings made for vy
  1 settings made for vz
#velocity v1 set 0.0 10.0 0.0 loop all
#velocity v2 set 0.0 -10.0 0.0 loop all

fix m3 all property/global coefficientRestitution peratomtypepair 1 ${restiv}
fix m3 all property/global coefficientRestitution peratomtypepair 1 0.17

reset_timestep 0
run	30000
Setting up run at Sat Feb 25 22:01:46 2023

Memory usage per processor = 12.0781 Mbytes
    Step    Atoms         KinEng         Volume 
       0        2      52.359878            400 
   10000        2      1.4664267            400 
   20000        2      1.4664267            400 
   30000        2      1.4664267            400 
Loop time of 0.0342431 on 1 procs for 30000 steps with 2 atoms, finish time Sat Feb 25 22:01:46 2023


Pair  time (%) = 0.00909921 (26.5724)
Neigh time (%) = 0.00213588 (6.2374)
Comm  time (%) = 0.00564167 (16.4754)
Outpt time (%) = 0.000234502 (0.684816)
Other time (%) = 0.0171318 (50.03)

Nlocal:    2 ave 2 max 2 min
Histogram: 1 0 0 0 0 0 0 0 0 0
Nghost:    4 ave 4 max 4 min
Histogram: 1 0 0 0 0 0 0 0 0 0
Neighs:    0 ave 0 max 0 min
Histogram: 1 0 0 0 0 0 0 0 0 0

Total # of neighbors = 0
Ave neighs/atom = 0
Neighbor list builds = 199
Dangerous builds = 0
unfix	m3
next r
undump	dmp
#undump dmp_local
#uncompute deltas
jump in.normalImpact loop
variable	r loop 6 100 # 100

## compute the array of overlaps, which will contain p-id 1, p-id 2, and their overlap [m]
#compute deltas all pair/gran/local id delta

# define output - t=0 and t=end
dump dmp all custom 30000 post/rest_$r_*.post id type x y z vx vy vz radius fx fy fz mass omegax omegay omegaz tqx tqy tqz
dump dmp all custom 30000 post/rest_18_*.post id type x y z vx vy vz radius fx fy fz mass omegax omegay omegaz tqx tqy tqz
#dump dmp_local all local 1000 post_computes/dump_$r_computes*.post c_deltas[1] c_deltas[2] c_deltas[4]

# calculate restitution
variable restiv equal (${r})/100
variable restiv equal (18)/100
print	"Restitution coefficient = ${restiv}"
Restitution coefficient = 0.18


# reset initial position and velocity
#create_atoms 1 single 0.0 50.0 0.0
#create_atoms 2 single 0.0 60.0 0.0

#set atom 1 x 0.0 y 50.0 z 0.0
#set atom 2 x 0.0 y 60.0 z 0.0

group v1 id 1
1 atoms in group v1
group v2 id 2
1 atoms in group v2

# for some reason, setting the positions in the way above (set atom atomID) changes the forces to NaN
# need to use setting velocites by group instead
set group v1 y 50.0
  1 settings made for y
set group v2 y 60.0
  1 settings made for y

set group v1 vx 0.0 vy 10.0 vz 0.0
  1 settings made for vx
  1 settings made for vy
  1 settings made for vz
set group v2 vx 0.0 vy -10.0 vz 0.0
  1 settings made for vx
  1 settings made for vy
  1 settings made for vz
#velocity v1 set 0.0 10.0 0.0 loop all
#velocity v2 set 0.0 -10.0 0.0 loop all

fix m3 all property/global coefficientRestitution peratomtypepair 1 ${restiv}
fix m3 all property/global coefficientRestitution peratomtypepair 1 0.18

reset_timestep 0
run	30000
Setting up run at Sat Feb 25 22:01:46 2023

Memory usage per processor = 12.0781 Mbytes
    Step    Atoms         KinEng         Volume 
       0        2      52.359878            400 
   10000        2      1.6489536            400 
   20000        2      1.6489536            400 
   30000        2      1.6489536            400 
Loop time of 0.0422616 on 1 procs for 30000 steps with 2 atoms, finish time Sat Feb 25 22:01:46 2023


Pair  time (%) = 0.0114951 (27.1999)
Neigh time (%) = 0.00251881 (5.96004)
Comm  time (%) = 0.0070111 (16.5898)
Outpt time (%) = 0.000222761 (0.5271)
Other time (%) = 0.0210138 (49.7232)

Nlocal:    2 ave 2 max 2 min
Histogram: 1 0 0 0 0 0 0 0 0 0
Nghost:    4 ave 4 max 4 min
Histogram: 1 0 0 0 0 0 0 0 0 0
Neighs:    0 ave 0 max 0 min
Histogram: 1 0 0 0 0 0 0 0 0 0

Total # of neighbors = 0
Ave neighs/atom = 0
Neighbor list builds = 202
Dangerous builds = 0
unfix	m3
next r
undump	dmp
#undump dmp_local
#uncompute deltas
jump in.normalImpact loop
variable	r loop 6 100 # 100

## compute the array of overlaps, which will contain p-id 1, p-id 2, and their overlap [m]
#compute deltas all pair/gran/local id delta

# define output - t=0 and t=end
dump dmp all custom 30000 post/rest_$r_*.post id type x y z vx vy vz radius fx fy fz mass omegax omegay omegaz tqx tqy tqz
dump dmp all custom 30000 post/rest_19_*.post id type x y z vx vy vz radius fx fy fz mass omegax omegay omegaz tqx tqy tqz
#dump dmp_local all local 1000 post_computes/dump_$r_computes*.post c_deltas[1] c_deltas[2] c_deltas[4]

# calculate restitution
variable restiv equal (${r})/100
variable restiv equal (19)/100
print	"Restitution coefficient = ${restiv}"
Restitution coefficient = 0.19


# reset initial position and velocity
#create_atoms 1 single 0.0 50.0 0.0
#create_atoms 2 single 0.0 60.0 0.0

#set atom 1 x 0.0 y 50.0 z 0.0
#set atom 2 x 0.0 y 60.0 z 0.0

group v1 id 1
1 atoms in group v1
group v2 id 2
1 atoms in group v2

# for some reason, setting the positions in the way above (set atom atomID) changes the forces to NaN
# need to use setting velocites by group instead
set group v1 y 50.0
  1 settings made for y
set group v2 y 60.0
  1 settings made for y

set group v1 vx 0.0 vy 10.0 vz 0.0
  1 settings made for vx
  1 settings made for vy
  1 settings made for vz
set group v2 vx 0.0 vy -10.0 vz 0.0
  1 settings made for vx
  1 settings made for vy
  1 settings made for vz
#velocity v1 set 0.0 10.0 0.0 loop all
#velocity v2 set 0.0 -10.0 0.0 loop all

fix m3 all property/global coefficientRestitution peratomtypepair 1 ${restiv}
fix m3 all property/global coefficientRestitution peratomtypepair 1 0.19

reset_timestep 0
run	30000
Setting up run at Sat Feb 25 22:01:46 2023

Memory usage per processor = 12.0781 Mbytes
    Step    Atoms         KinEng         Volume 
       0        2      52.359878            400 
   10000        2      1.8409406            400 
   20000        2      1.8409406            400 
   30000        2      1.8409406            400 
Loop time of 0.0423366 on 1 procs for 30000 steps with 2 atoms, finish time Sat Feb 25 22:01:46 2023


Pair  time (%) = 0.0113625 (26.8385)
Neigh time (%) = 0.00265707 (6.27605)
Comm  time (%) = 0.00705766 (16.6703)
Outpt time (%) = 0.000348371 (0.82286)
Other time (%) = 0.020911 (49.3922)

Nlocal:    2 ave 2 max 2 min
Histogram: 1 0 0 0 0 0 0 0 0 0
Nghost:    4 ave 4 max 4 min
Histogram: 1 0 0 0 0 0 0 0 0 0
Neighs:    0 ave 0 max 0 min
Histogram: 1 0 0 0 0 0 0 0 0 0

Total # of neighbors = 0
Ave neighs/atom = 0
Neighbor list builds = 205
Dangerous builds = 0
unfix	m3
next r
undump	dmp
#undump dmp_local
#uncompute deltas
jump in.normalImpact loop
variable	r loop 6 100 # 100

## compute the array of overlaps, which will contain p-id 1, p-id 2, and their overlap [m]
#compute deltas all pair/gran/local id delta

# define output - t=0 and t=end
dump dmp all custom 30000 post/rest_$r_*.post id type x y z vx vy vz radius fx fy fz mass omegax omegay omegaz tqx tqy tqz
dump dmp all custom 30000 post/rest_20_*.post id type x y z vx vy vz radius fx fy fz mass omegax omegay omegaz tqx tqy tqz
#dump dmp_local all local 1000 post_computes/dump_$r_computes*.post c_deltas[1] c_deltas[2] c_deltas[4]

# calculate restitution
variable restiv equal (${r})/100
variable restiv equal (20)/100
print	"Restitution coefficient = ${restiv}"
Restitution coefficient = 0.2


# reset initial position and velocity
#create_atoms 1 single 0.0 50.0 0.0
#create_atoms 2 single 0.0 60.0 0.0

#set atom 1 x 0.0 y 50.0 z 0.0
#set atom 2 x 0.0 y 60.0 z 0.0

group v1 id 1
1 atoms in group v1
group v2 id 2
1 atoms in group v2

# for some reason, setting the positions in the way above (set atom atomID) changes the forces to NaN
# need to use setting velocites by group instead
set group v1 y 50.0
  1 settings made for y
set group v2 y 60.0
  1 settings made for y

set group v1 vx 0.0 vy 10.0 vz 0.0
  1 settings made for vx
  1 settings made for vy
  1 settings made for vz
set group v2 vx 0.0 vy -10.0 vz 0.0
  1 settings made for vx
  1 settings made for vy
  1 settings made for vz
#velocity v1 set 0.0 10.0 0.0 loop all
#velocity v2 set 0.0 -10.0 0.0 loop all

fix m3 all property/global coefficientRestitution peratomtypepair 1 ${restiv}
fix m3 all property/global coefficientRestitution peratomtypepair 1 0.2

reset_timestep 0
run	30000
Setting up run at Sat Feb 25 22:01:46 2023

Memory usage per processor = 12.0781 Mbytes
    Step    Atoms         KinEng         Volume 
       0        2      52.359878            400 
   10000        2      2.0435444            400 
   20000        2      2.0435444            400 
   30000        2      2.0435444            400 
Loop time of 0.0333604 on 1 procs for 30000 steps with 2 atoms, finish time Sat Feb 25 22:01:46 2023


Pair  time (%) = 0.00893039 (26.7694)
Neigh time (%) = 0.00186248 (5.58289)
Comm  time (%) = 0.00552281 (16.555)
Outpt time (%) = 0.000187063 (0.560734)
Other time (%) = 0.0168577 (50.532)

Nlocal:    2 ave 2 max 2 min
Histogram: 1 0 0 0 0 0 0 0 0 0
Nghost:    4 ave 4 max 4 min
Histogram: 1 0 0 0 0 0 0 0 0 0
Neighs:    0 ave 0 max 0 min
Histogram: 1 0 0 0 0 0 0 0 0 0

Total # of neighbors = 0
Ave neighs/atom = 0
Neighbor list builds = 209
Dangerous builds = 0
unfix	m3
next r
undump	dmp
#undump dmp_local
#uncompute deltas
jump in.normalImpact loop
variable	r loop 6 100 # 100

## compute the array of overlaps, which will contain p-id 1, p-id 2, and their overlap [m]
#compute deltas all pair/gran/local id delta

# define output - t=0 and t=end
dump dmp all custom 30000 post/rest_$r_*.post id type x y z vx vy vz radius fx fy fz mass omegax omegay omegaz tqx tqy tqz
dump dmp all custom 30000 post/rest_21_*.post id type x y z vx vy vz radius fx fy fz mass omegax omegay omegaz tqx tqy tqz
#dump dmp_local all local 1000 post_computes/dump_$r_computes*.post c_deltas[1] c_deltas[2] c_deltas[4]

# calculate restitution
variable restiv equal (${r})/100
variable restiv equal (21)/100
print	"Restitution coefficient = ${restiv}"
Restitution coefficient = 0.21


# reset initial position and velocity
#create_atoms 1 single 0.0 50.0 0.0
#create_atoms 2 single 0.0 60.0 0.0

#set atom 1 x 0.0 y 50.0 z 0.0
#set atom 2 x 0.0 y 60.0 z 0.0

group v1 id 1
1 atoms in group v1
group v2 id 2
1 atoms in group v2

# for some reason, setting the positions in the way above (set atom atomID) changes the forces to NaN
# need to use setting velocites by group instead
set group v1 y 50.0
  1 settings made for y
set group v2 y 60.0
  1 settings made for y

set group v1 vx 0.0 vy 10.0 vz 0.0
  1 settings made for vx
  1 settings made for vy
  1 settings made for vz
set group v2 vx 0.0 vy -10.0 vz 0.0
  1 settings made for vx
  1 settings made for vy
  1 settings made for vz
#velocity v1 set 0.0 10.0 0.0 loop all
#velocity v2 set 0.0 -10.0 0.0 loop all

fix m3 all property/global coefficientRestitution peratomtypepair 1 ${restiv}
fix m3 all property/global coefficientRestitution peratomtypepair 1 0.21

reset_timestep 0
run	30000
Setting up run at Sat Feb 25 22:01:46 2023

Memory usage per processor = 12.0781 Mbytes
    Step    Atoms         KinEng         Volume 
       0        2      52.359878            400 
   10000        2      2.2604614            400 
   20000        2      2.2604614            400 
   30000        2      2.2604614            400 
Loop time of 0.0348092 on 1 procs for 30000 steps with 2 atoms, finish time Sat Feb 25 22:01:46 2023


Pair  time (%) = 0.0092914 (26.6924)
Neigh time (%) = 0.00224531 (6.45034)
Comm  time (%) = 0.00566953 (16.2875)
Outpt time (%) = 0.000197057 (0.566107)
Other time (%) = 0.0174059 (50.0037)

Nlocal:    2 ave 2 max 2 min
Histogram: 1 0 0 0 0 0 0 0 0 0
Nghost:    4 ave 4 max 4 min
Histogram: 1 0 0 0 0 0 0 0 0 0
Neighs:    0 ave 0 max 0 min
Histogram: 1 0 0 0 0 0 0 0 0 0

Total # of neighbors = 0
Ave neighs/atom = 0
Neighbor list builds = 212
Dangerous builds = 0
unfix	m3
next r
undump	dmp
#undump dmp_local
#uncompute deltas
jump in.normalImpact loop
variable	r loop 6 100 # 100

## compute the array of overlaps, which will contain p-id 1, p-id 2, and their overlap [m]
#compute deltas all pair/gran/local id delta

# define output - t=0 and t=end
dump dmp all custom 30000 post/rest_$r_*.post id type x y z vx vy vz radius fx fy fz mass omegax omegay omegaz tqx tqy tqz
dump dmp all custom 30000 post/rest_22_*.post id type x y z vx vy vz radius fx fy fz mass omegax omegay omegaz tqx tqy tqz
#dump dmp_local all local 1000 post_computes/dump_$r_computes*.post c_deltas[1] c_deltas[2] c_deltas[4]

# calculate restitution
variable restiv equal (${r})/100
variable restiv equal (22)/100
print	"Restitution coefficient = ${restiv}"
Restitution coefficient = 0.22


# reset initial position and velocity
#create_atoms 1 single 0.0 50.0 0.0
#create_atoms 2 single 0.0 60.0 0.0

#set atom 1 x 0.0 y 50.0 z 0.0
#set atom 2 x 0.0 y 60.0 z 0.0

group v1 id 1
1 atoms in group v1
group v2 id 2
1 atoms in group v2

# for some reason, setting the positions in the way above (set atom atomID) changes the forces to NaN
# need to use setting velocites by group instead
set group v1 y 50.0
  1 settings made for y
set group v2 y 60.0
  1 settings made for y

set group v1 vx 0.0 vy 10.0 vz 0.0
  1 settings made for vx
  1 settings made for vy
  1 settings made for vz
set group v2 vx 0.0 vy -10.0 vz 0.0
  1 settings made for vx
  1 settings made for vy
  1 settings made for vz
#velocity v1 set 0.0 10.0 0.0 loop all
#velocity v2 set 0.0 -10.0 0.0 loop all

fix m3 all property/global coefficientRestitution peratomtypepair 1 ${restiv}
fix m3 all property/global coefficientRestitution peratomtypepair 1 0.22

reset_timestep 0
run	30000
Setting up run at Sat Feb 25 22:01:46 2023

Memory usage per processor = 12.0781 Mbytes
    Step    Atoms         KinEng         Volume 
       0        2      52.359878            400 
   10000        2      2.4940189            400 
   20000        2      2.4940189            400 
   30000        2      2.4940189            400 
Loop time of 0.0362248 on 1 procs for 30000 steps with 2 atoms, finish time Sat Feb 25 22:01:46 2023


Pair  time (%) = 0.00972806 (26.8547)
Neigh time (%) = 0.00253609 (7.00097)
Comm  time (%) = 0.00581724 (16.0587)
Outpt time (%) = 0.00015431 (0.425979)
Other time (%) = 0.0179891 (49.6597)

Nlocal:    2 ave 2 max 2 min
Histogram: 1 0 0 0 0 0 0 0 0 0
Nghost:    4 ave 4 max 4 min
Histogram: 1 0 0 0 0 0 0 0 0 0
Neighs:    0 ave 0 max 0 min
Histogram: 1 0 0 0 0 0 0 0 0 0

Total # of neighbors = 0
Ave neighs/atom = 0
Neighbor list builds = 216
Dangerous builds = 0
unfix	m3
next r
undump	dmp
#undump dmp_local
#uncompute deltas
jump in.normalImpact loop
variable	r loop 6 100 # 100

## compute the array of overlaps, which will contain p-id 1, p-id 2, and their overlap [m]
#compute deltas all pair/gran/local id delta

# define output - t=0 and t=end
dump dmp all custom 30000 post/rest_$r_*.post id type x y z vx vy vz radius fx fy fz mass omegax omegay omegaz tqx tqy tqz
dump dmp all custom 30000 post/rest_23_*.post id type x y z vx vy vz radius fx fy fz mass omegax omegay omegaz tqx tqy tqz
#dump dmp_local all local 1000 post_computes/dump_$r_computes*.post c_deltas[1] c_deltas[2] c_deltas[4]

# calculate restitution
variable restiv equal (${r})/100
variable restiv equal (23)/100
print	"Restitution coefficient = ${restiv}"
Restitution coefficient = 0.23


# reset initial position and velocity
#create_atoms 1 single 0.0 50.0 0.0
#create_atoms 2 single 0.0 60.0 0.0

#set atom 1 x 0.0 y 50.0 z 0.0
#set atom 2 x 0.0 y 60.0 z 0.0

group v1 id 1
1 atoms in group v1
group v2 id 2
1 atoms in group v2

# for some reason, setting the positions in the way above (set atom atomID) changes the forces to NaN
# need to use setting velocites by group instead
set group v1 y 50.0
  1 settings made for y
set group v2 y 60.0
  1 settings made for y

set group v1 vx 0.0 vy 10.0 vz 0.0
  1 settings made for vx
  1 settings made for vy
  1 settings made for vz
set group v2 vx 0.0 vy -10.0 vz 0.0
  1 settings made for vx
  1 settings made for vy
  1 settings made for vz
#velocity v1 set 0.0 10.0 0.0 loop all
#velocity v2 set 0.0 -10.0 0.0 loop all

fix m3 all property/global coefficientRestitution peratomtypepair 1 ${restiv}
fix m3 all property/global coefficientRestitution peratomtypepair 1 0.23

reset_timestep 0
run	30000
Setting up run at Sat Feb 25 22:01:46 2023

Memory usage per processor = 12.0781 Mbytes
    Step    Atoms         KinEng         Volume 
       0        2      52.359878            400 
   10000        2      2.7458673            400 
   20000        2      2.7458673            400 
   30000        2      2.7458673            400 
Loop time of 0.0409615 on 1 procs for 30000 steps with 2 atoms, finish time Sat Feb 25 22:01:46 2023


Pair  time (%) = 0.0110704 (27.0263)
Neigh time (%) = 0.00255402 (6.23516)
Comm  time (%) = 0.00668724 (16.3256)
Outpt time (%) = 0.000237832 (0.580623)
Other time (%) = 0.0204121 (49.8323)

Nlocal:    2 ave 2 max 2 min
Histogram: 1 0 0 0 0 0 0 0 0 0
Nghost:    4 ave 4 max 4 min
Histogram: 1 0 0 0 0 0 0 0 0 0
Neighs:    0 ave 0 max 0 min
Histogram: 1 0 0 0 0 0 0 0 0 0

Total # of neighbors = 0
Ave neighs/atom = 0
Neighbor list builds = 219
Dangerous builds = 0
unfix	m3
next r
undump	dmp
#undump dmp_local
#uncompute deltas
jump in.normalImpact loop
variable	r loop 6 100 # 100

## compute the array of overlaps, which will contain p-id 1, p-id 2, and their overlap [m]
#compute deltas all pair/gran/local id delta

# define output - t=0 and t=end
dump dmp all custom 30000 post/rest_$r_*.post id type x y z vx vy vz radius fx fy fz mass omegax omegay omegaz tqx tqy tqz
dump dmp all custom 30000 post/rest_24_*.post id type x y z vx vy vz radius fx fy fz mass omegax omegay omegaz tqx tqy tqz
#dump dmp_local all local 1000 post_computes/dump_$r_computes*.post c_deltas[1] c_deltas[2] c_deltas[4]

# calculate restitution
variable restiv equal (${r})/100
variable restiv equal (24)/100
print	"Restitution coefficient = ${restiv}"
Restitution coefficient = 0.24


# reset initial position and velocity
#create_atoms 1 single 0.0 50.0 0.0
#create_atoms 2 single 0.0 60.0 0.0

#set atom 1 x 0.0 y 50.0 z 0.0
#set atom 2 x 0.0 y 60.0 z 0.0

group v1 id 1
1 atoms in group v1
group v2 id 2
1 atoms in group v2

# for some reason, setting the positions in the way above (set atom atomID) changes the forces to NaN
# need to use setting velocites by group instead
set group v1 y 50.0
  1 settings made for y
set group v2 y 60.0
  1 settings made for y

set group v1 vx 0.0 vy 10.0 vz 0.0
  1 settings made for vx
  1 settings made for vy
  1 settings made for vz
set group v2 vx 0.0 vy -10.0 vz 0.0
  1 settings made for vx
  1 settings made for vy
  1 settings made for vz
#velocity v1 set 0.0 10.0 0.0 loop all
#velocity v2 set 0.0 -10.0 0.0 loop all

fix m3 all property/global coefficientRestitution peratomtypepair 1 ${restiv}
fix m3 all property/global coefficientRestitution peratomtypepair 1 0.24

reset_timestep 0
run	30000
Setting up run at Sat Feb 25 22:01:46 2023

Memory usage per processor = 12.0781 Mbytes
    Step    Atoms         KinEng         Volume 
       0        2      52.359878            400 
   10000        2      2.9619977            400 
   20000        2      2.9619977            400 
   30000        2      2.9619977            400 
Loop time of 0.0378142 on 1 procs for 30000 steps with 2 atoms, finish time Sat Feb 25 22:01:46 2023


Pair  time (%) = 0.0102925 (27.2187)
Neigh time (%) = 0.0021223 (5.61242)
Comm  time (%) = 0.00610505 (16.1448)
Outpt time (%) = 0.000219644 (0.58085)
Other time (%) = 0.0190747 (50.4432)

Nlocal:    2 ave 2 max 2 min
Histogram: 1 0 0 0 0 0 0 0 0 0
Nghost:    4 ave 4 max 4 min
Histogram: 1 0 0 0 0 0 0 0 0 0
Neighs:    0 ave 0 max 0 min
Histogram: 1 0 0 0 0 0 0 0 0 0

Total # of neighbors = 0
Ave neighs/atom = 0
Neighbor list builds = 222
Dangerous builds = 0
unfix	m3
next r
undump	dmp
#undump dmp_local
#uncompute deltas
jump in.normalImpact loop
variable	r loop 6 100 # 100

## compute the array of overlaps, which will contain p-id 1, p-id 2, and their overlap [m]
#compute deltas all pair/gran/local id delta

# define output - t=0 and t=end
dump dmp all custom 30000 post/rest_$r_*.post id type x y z vx vy vz radius fx fy fz mass omegax omegay omegaz tqx tqy tqz
dump dmp all custom 30000 post/rest_25_*.post id type x y z vx vy vz radius fx fy fz mass omegax omegay omegaz tqx tqy tqz
#dump dmp_local all local 1000 post_computes/dump_$r_computes*.post c_deltas[1] c_deltas[2] c_deltas[4]

# calculate restitution
variable restiv equal (${r})/100
variable restiv equal (25)/100
print	"Restitution coefficient = ${restiv}"
Restitution coefficient = 0.25


# reset initial position and velocity
#create_atoms 1 single 0.0 50.0 0.0
#create_atoms 2 single 0.0 60.0 0.0

#set atom 1 x 0.0 y 50.0 z 0.0
#set atom 2 x 0.0 y 60.0 z 0.0

group v1 id 1
1 atoms in group v1
group v2 id 2
1 atoms in group v2

# for some reason, setting the positions in the way above (set atom atomID) changes the forces to NaN
# need to use setting velocites by group instead
set group v1 y 50.0
  1 settings made for y
set group v2 y 60.0
  1 settings made for y

set group v1 vx 0.0 vy 10.0 vz 0.0
  1 settings made for vx
  1 settings made for vy
  1 settings made for vz
set group v2 vx 0.0 vy -10.0 vz 0.0
  1 settings made for vx
  1 settings made for vy
  1 settings made for vz
#velocity v1 set 0.0 10.0 0.0 loop all
#velocity v2 set 0.0 -10.0 0.0 loop all

fix m3 all property/global coefficientRestitution peratomtypepair 1 ${restiv}
fix m3 all property/global coefficientRestitution peratomtypepair 1 0.25

reset_timestep 0
run	30000
Setting up run at Sat Feb 25 22:01:46 2023

Memory usage per processor = 12.0781 Mbytes
    Step    Atoms         KinEng         Volume 
       0        2      52.359878            400 
   10000        2      3.2285568            400 
   20000        2      3.2285568            400 
   30000        2      3.2285568            400 
Loop time of 0.0415776 on 1 procs for 30000 steps with 2 atoms, finish time Sat Feb 25 22:01:46 2023


Pair  time (%) = 0.0116077 (27.9181)
Neigh time (%) = 0.00238694 (5.74091)
Comm  time (%) = 0.00669136 (16.0937)
Outpt time (%) = 0.000242955 (0.584341)
Other time (%) = 0.0206487 (49.663)

Nlocal:    2 ave 2 max 2 min
Histogram: 1 0 0 0 0 0 0 0 0 0
Nghost:    4 ave 4 max 4 min
Histogram: 1 0 0 0 0 0 0 0 0 0
Neighs:    0 ave 0 max 0 min
Histogram: 1 0 0 0 0 0 0 0 0 0

Total # of neighbors = 0
Ave neighs/atom = 0
Neighbor list builds = 226
Dangerous builds = 0
unfix	m3
next r
undump	dmp
#undump dmp_local
#uncompute deltas
jump in.normalImpact loop
variable	r loop 6 100 # 100

## compute the array of overlaps, which will contain p-id 1, p-id 2, and their overlap [m]
#compute deltas all pair/gran/local id delta

# define output - t=0 and t=end
dump dmp all custom 30000 post/rest_$r_*.post id type x y z vx vy vz radius fx fy fz mass omegax omegay omegaz tqx tqy tqz
dump dmp all custom 30000 post/rest_26_*.post id type x y z vx vy vz radius fx fy fz mass omegax omegay omegaz tqx tqy tqz
#dump dmp_local all local 1000 post_computes/dump_$r_computes*.post c_deltas[1] c_deltas[2] c_deltas[4]

# calculate restitution
variable restiv equal (${r})/100
variable restiv equal (26)/100
print	"Restitution coefficient = ${restiv}"
Restitution coefficient = 0.26


# reset initial position and velocity
#create_atoms 1 single 0.0 50.0 0.0
#create_atoms 2 single 0.0 60.0 0.0

#set atom 1 x 0.0 y 50.0 z 0.0
#set atom 2 x 0.0 y 60.0 z 0.0

group v1 id 1
1 atoms in group v1
group v2 id 2
1 atoms in group v2

# for some reason, setting the positions in the way above (set atom atomID) changes the forces to NaN
# need to use setting velocites by group instead
set group v1 y 50.0
  1 settings made for y
set group v2 y 60.0
  1 settings made for y

set group v1 vx 0.0 vy 10.0 vz 0.0
  1 settings made for vx
  1 settings made for vy
  1 settings made for vz
set group v2 vx 0.0 vy -10.0 vz 0.0
  1 settings made for vx
  1 settings made for vy
  1 settings made for vz
#velocity v1 set 0.0 10.0 0.0 loop all
#velocity v2 set 0.0 -10.0 0.0 loop all

fix m3 all property/global coefficientRestitution peratomtypepair 1 ${restiv}
fix m3 all property/global coefficientRestitution peratomtypepair 1 0.26

reset_timestep 0
run	30000
Setting up run at Sat Feb 25 22:01:46 2023

Memory usage per processor = 12.0781 Mbytes
    Step    Atoms         KinEng         Volume 
       0        2      52.359878            400 
   10000        2      3.5243429            400 
   20000        2      3.5243429            400 
   30000        2      3.5243429            400 
Loop time of 0.0413358 on 1 procs for 30000 steps with 2 atoms, finish time Sat Feb 25 22:01:46 2023


Pair  time (%) = 0.010758 (26.0259)
Neigh time (%) = 0.00291016 (7.0403)
Comm  time (%) = 0.0067666 (16.3698)
Outpt time (%) = 0.000222669 (0.538684)
Other time (%) = 0.0206783 (50.0253)

Nlocal:    2 ave 2 max 2 min
Histogram: 1 0 0 0 0 0 0 0 0 0
Nghost:    4 ave 4 max 4 min
Histogram: 1 0 0 0 0 0 0 0 0 0
Neighs:    0 ave 0 max 0 min
Histogram: 1 0 0 0 0 0 0 0 0 0

Total # of neighbors = 0
Ave neighs/atom = 0
Neighbor list builds = 229
Dangerous builds = 0
unfix	m3
next r
undump	dmp
#undump dmp_local
#uncompute deltas
jump in.normalImpact loop
variable	r loop 6 100 # 100

## compute the array of overlaps, which will contain p-id 1, p-id 2, and their overlap [m]
#compute deltas all pair/gran/local id delta

# define output - t=0 and t=end
dump dmp all custom 30000 post/rest_$r_*.post id type x y z vx vy vz radius fx fy fz mass omegax omegay omegaz tqx tqy tqz
dump dmp all custom 30000 post/rest_27_*.post id type x y z vx vy vz radius fx fy fz mass omegax omegay omegaz tqx tqy tqz
#dump dmp_local all local 1000 post_computes/dump_$r_computes*.post c_deltas[1] c_deltas[2] c_deltas[4]

# calculate restitution
variable restiv equal (${r})/100
variable restiv equal (27)/100
print	"Restitution coefficient = ${restiv}"
Restitution coefficient = 0.27


# reset initial position and velocity
#create_atoms 1 single 0.0 50.0 0.0
#create_atoms 2 single 0.0 60.0 0.0

#set atom 1 x 0.0 y 50.0 z 0.0
#set atom 2 x 0.0 y 60.0 z 0.0

group v1 id 1
1 atoms in group v1
group v2 id 2
1 atoms in group v2

# for some reason, setting the positions in the way above (set atom atomID) changes the forces to NaN
# need to use setting velocites by group instead
set group v1 y 50.0
  1 settings made for y
set group v2 y 60.0
  1 settings made for y

set group v1 vx 0.0 vy 10.0 vz 0.0
  1 settings made for vx
  1 settings made for vy
  1 settings made for vz
set group v2 vx 0.0 vy -10.0 vz 0.0
  1 settings made for vx
  1 settings made for vy
  1 settings made for vz
#velocity v1 set 0.0 10.0 0.0 loop all
#velocity v2 set 0.0 -10.0 0.0 loop all

fix m3 all property/global coefficientRestitution peratomtypepair 1 ${restiv}
fix m3 all property/global coefficientRestitution peratomtypepair 1 0.27

reset_timestep 0
run	30000
Setting up run at Sat Feb 25 22:01:46 2023

Memory usage per processor = 12.0781 Mbytes
    Step    Atoms         KinEng         Volume 
       0        2      52.359878            400 
   10000        2      3.7641599            400 
   20000        2      3.7641599            400 
   30000        2      3.7641599            400 
Loop time of 0.0370595 on 1 procs for 30000 steps with 2 atoms, finish time Sat Feb 25 22:01:46 2023


Pair  time (%) = 0.00984874 (26.5755)
Neigh time (%) = 0.00239696 (6.46786)
Comm  time (%) = 0.00596833 (16.1047)
Outpt time (%) = 0.000194173 (0.523949)
Other time (%) = 0.0186513 (50.328)

Nlocal:    2 ave 2 max 2 min
Histogram: 1 0 0 0 0 0 0 0 0 0
Nghost:    4 ave 4 max 4 min
Histogram: 1 0 0 0 0 0 0 0 0 0
Neighs:    0 ave 0 max 0 min
Histogram: 1 0 0 0 0 0 0 0 0 0

Total # of neighbors = 0
Ave neighs/atom = 0
Neighbor list builds = 232
Dangerous builds = 0
unfix	m3
next r
undump	dmp
#undump dmp_local
#uncompute deltas
jump in.normalImpact loop
variable	r loop 6 100 # 100

## compute the array of overlaps, which will contain p-id 1, p-id 2, and their overlap [m]
#compute deltas all pair/gran/local id delta

# define output - t=0 and t=end
dump dmp all custom 30000 post/rest_$r_*.post id type x y z vx vy vz radius fx fy fz mass omegax omegay omegaz tqx tqy tqz
dump dmp all custom 30000 post/rest_28_*.post id type x y z vx vy vz radius fx fy fz mass omegax omegay omegaz tqx tqy tqz
#dump dmp_local all local 1000 post_computes/dump_$r_computes*.post c_deltas[1] c_deltas[2] c_deltas[4]

# calculate restitution
variable restiv equal (${r})/100
variable restiv equal (28)/100
print	"Restitution coefficient = ${restiv}"
Restitution coefficient = 0.28


# reset initial position and velocity
#create_atoms 1 single 0.0 50.0 0.0
#create_atoms 2 single 0.0 60.0 0.0

#set atom 1 x 0.0 y 50.0 z 0.0
#set atom 2 x 0.0 y 60.0 z 0.0

group v1 id 1
1 atoms in group v1
group v2 id 2
1 atoms in group v2

# for some reason, setting the positions in the way above (set atom atomID) changes the forces to NaN
# need to use setting velocites by group instead
set group v1 y 50.0
  1 settings made for y
set group v2 y 60.0
  1 settings made for y

set group v1 vx 0.0 vy 10.0 vz 0.0
  1 settings made for vx
  1 settings made for vy
  1 settings made for vz
set group v2 vx 0.0 vy -10.0 vz 0.0
  1 settings made for vx
  1 settings made for vy
  1 settings made for vz
#velocity v1 set 0.0 10.0 0.0 loop all
#velocity v2 set 0.0 -10.0 0.0 loop all

fix m3 all property/global coefficientRestitution peratomtypepair 1 ${restiv}
fix m3 all property/global coefficientRestitution peratomtypepair 1 0.28

reset_timestep 0
run	30000
Setting up run at Sat Feb 25 22:01:46 2023

Memory usage per processor = 12.0781 Mbytes
    Step    Atoms         KinEng         Volume 
       0        2      52.359878            400 
   10000        2      4.0829225            400 
   20000        2      4.0829225            400 
   30000        2      4.0829225            400 
Loop time of 0.0384685 on 1 procs for 30000 steps with 2 atoms, finish time Sat Feb 25 22:01:46 2023


Pair  time (%) = 0.0099984 (25.9912)
Neigh time (%) = 0.00272045 (7.07189)
Comm  time (%) = 0.00626854 (16.2953)
Outpt time (%) = 0.000243475 (0.632921)
Other time (%) = 0.0192376 (50.0088)

Nlocal:    2 ave 2 max 2 min
Histogram: 1 0 0 0 0 0 0 0 0 0
Nghost:    4 ave 4 max 4 min
Histogram: 1 0 0 0 0 0 0 0 0 0
Neighs:    0 ave 0 max 0 min
Histogram: 1 0 0 0 0 0 0 0 0 0

Total # of neighbors = 0
Ave neighs/atom = 0
Neighbor list builds = 236
Dangerous builds = 0
unfix	m3
next r
undump	dmp
#undump dmp_local
#uncompute deltas
jump in.normalImpact loop
variable	r loop 6 100 # 100

## compute the array of overlaps, which will contain p-id 1, p-id 2, and their overlap [m]
#compute deltas all pair/gran/local id delta

# define output - t=0 and t=end
dump dmp all custom 30000 post/rest_$r_*.post id type x y z vx vy vz radius fx fy fz mass omegax omegay omegaz tqx tqy tqz
dump dmp all custom 30000 post/rest_29_*.post id type x y z vx vy vz radius fx fy fz mass omegax omegay omegaz tqx tqy tqz
#dump dmp_local all local 1000 post_computes/dump_$r_computes*.post c_deltas[1] c_deltas[2] c_deltas[4]

# calculate restitution
variable restiv equal (${r})/100
variable restiv equal (29)/100
print	"Restitution coefficient = ${restiv}"
Restitution coefficient = 0.29


# reset initial position and velocity
#create_atoms 1 single 0.0 50.0 0.0
#create_atoms 2 single 0.0 60.0 0.0

#set atom 1 x 0.0 y 50.0 z 0.0
#set atom 2 x 0.0 y 60.0 z 0.0

group v1 id 1
1 atoms in group v1
group v2 id 2
1 atoms in group v2

# for some reason, setting the positions in the way above (set atom atomID) changes the forces to NaN
# need to use setting velocites by group instead
set group v1 y 50.0
  1 settings made for y
set group v2 y 60.0
  1 settings made for y

set group v1 vx 0.0 vy 10.0 vz 0.0
  1 settings made for vx
  1 settings made for vy
  1 settings made for vz
set group v2 vx 0.0 vy -10.0 vz 0.0
  1 settings made for vx
  1 settings made for vy
  1 settings made for vz
#velocity v1 set 0.0 10.0 0.0 loop all
#velocity v2 set 0.0 -10.0 0.0 loop all

fix m3 all property/global coefficientRestitution peratomtypepair 1 ${restiv}
fix m3 all property/global coefficientRestitution peratomtypepair 1 0.29

reset_timestep 0
run	30000
Setting up run at Sat Feb 25 22:01:46 2023

Memory usage per processor = 12.0781 Mbytes
    Step    Atoms         KinEng         Volume 
       0        2      52.359878            400 
   10000        2      4.3488951            400 
   20000        2      4.3488951            400 
   30000        2      4.3488951            400 
Loop time of 0.0341837 on 1 procs for 30000 steps with 2 atoms, finish time Sat Feb 25 22:01:46 2023


Pair  time (%) = 0.00918189 (26.8604)
Neigh time (%) = 0.00212753 (6.22381)
Comm  time (%) = 0.00549525 (16.0757)
Outpt time (%) = 0.000178881 (0.523293)
Other time (%) = 0.0172001 (50.3168)

Nlocal:    2 ave 2 max 2 min
Histogram: 1 0 0 0 0 0 0 0 0 0
Nghost:    4 ave 4 max 4 min
Histogram: 1 0 0 0 0 0 0 0 0 0
Neighs:    0 ave 0 max 0 min
Histogram: 1 0 0 0 0 0 0 0 0 0

Total # of neighbors = 0
Ave neighs/atom = 0
Neighbor list builds = 239
Dangerous builds = 0
unfix	m3
next r
undump	dmp
#undump dmp_local
#uncompute deltas
jump in.normalImpact loop
variable	r loop 6 100 # 100

## compute the array of overlaps, which will contain p-id 1, p-id 2, and their overlap [m]
#compute deltas all pair/gran/local id delta

# define output - t=0 and t=end
dump dmp all custom 30000 post/rest_$r_*.post id type x y z vx vy vz radius fx fy fz mass omegax omegay omegaz tqx tqy tqz
dump dmp all custom 30000 post/rest_30_*.post id type x y z vx vy vz radius fx fy fz mass omegax omegay omegaz tqx tqy tqz
#dump dmp_local all local 1000 post_computes/dump_$r_computes*.post c_deltas[1] c_deltas[2] c_deltas[4]

# calculate restitution
variable restiv equal (${r})/100
variable restiv equal (30)/100
print	"Restitution coefficient = ${restiv}"
Restitution coefficient = 0.3


# reset initial position and velocity
#create_atoms 1 single 0.0 50.0 0.0
#create_atoms 2 single 0.0 60.0 0.0

#set atom 1 x 0.0 y 50.0 z 0.0
#set atom 2 x 0.0 y 60.0 z 0.0

group v1 id 1
1 atoms in group v1
group v2 id 2
1 atoms in group v2

# for some reason, setting the positions in the way above (set atom atomID) changes the forces to NaN
# need to use setting velocites by group instead
set group v1 y 50.0
  1 settings made for y
set group v2 y 60.0
  1 settings made for y

set group v1 vx 0.0 vy 10.0 vz 0.0
  1 settings made for vx
  1 settings made for vy
  1 settings made for vz
set group v2 vx 0.0 vy -10.0 vz 0.0
  1 settings made for vx
  1 settings made for vy
  1 settings made for vz
#velocity v1 set 0.0 10.0 0.0 loop all
#velocity v2 set 0.0 -10.0 0.0 loop all

fix m3 all property/global coefficientRestitution peratomtypepair 1 ${restiv}
fix m3 all property/global coefficientRestitution peratomtypepair 1 0.3

reset_timestep 0
run	30000
Setting up run at Sat Feb 25 22:01:46 2023

Memory usage per processor = 12.0781 Mbytes
    Step    Atoms         KinEng         Volume 
       0        2      52.359878            400 
   10000        2      4.6931374            400 
   20000        2      4.6931374            400 
   30000        2      4.6931374            400 
Loop time of 0.034028 on 1 procs for 30000 steps with 2 atoms, finish time Sat Feb 25 22:01:46 2023


Pair  time (%) = 0.00900994 (26.478)
Neigh time (%) = 0.00215619 (6.33653)
Comm  time (%) = 0.00550525 (16.1786)
Outpt time (%) = 0.000256791 (0.754646)
Other time (%) = 0.0170998 (50.2522)

Nlocal:    2 ave 2 max 2 min
Histogram: 1 0 0 0 0 0 0 0 0 0
Nghost:    4 ave 4 max 4 min
Histogram: 1 0 0 0 0 0 0 0 0 0
Neighs:    0 ave 0 max 0 min
Histogram: 1 0 0 0 0 0 0 0 0 0

Total # of neighbors = 0
Ave neighs/atom = 0
Neighbor list builds = 243
Dangerous builds = 0
unfix	m3
next r
undump	dmp
#undump dmp_local
#uncompute deltas
jump in.normalImpact loop
variable	r loop 6 100 # 100

## compute the array of overlaps, which will contain p-id 1, p-id 2, and their overlap [m]
#compute deltas all pair/gran/local id delta

# define output - t=0 and t=end
dump dmp all custom 30000 post/rest_$r_*.post id type x y z vx vy vz radius fx fy fz mass omegax omegay omegaz tqx tqy tqz
dump dmp all custom 30000 post/rest_31_*.post id type x y z vx vy vz radius fx fy fz mass omegax omegay omegaz tqx tqy tqz
#dump dmp_local all local 1000 post_computes/dump_$r_computes*.post c_deltas[1] c_deltas[2] c_deltas[4]

# calculate restitution
variable restiv equal (${r})/100
variable restiv equal (31)/100
print	"Restitution coefficient = ${restiv}"
Restitution coefficient = 0.31


# reset initial position and velocity
#create_atoms 1 single 0.0 50.0 0.0
#create_atoms 2 single 0.0 60.0 0.0

#set atom 1 x 0.0 y 50.0 z 0.0
#set atom 2 x 0.0 y 60.0 z 0.0

group v1 id 1
1 atoms in group v1
group v2 id 2
1 atoms in group v2

# for some reason, setting the positions in the way above (set atom atomID) changes the forces to NaN
# need to use setting velocites by group instead
set group v1 y 50.0
  1 settings made for y
set group v2 y 60.0
  1 settings made for y

set group v1 vx 0.0 vy 10.0 vz 0.0
  1 settings made for vx
  1 settings made for vy
  1 settings made for vz
set group v2 vx 0.0 vy -10.0 vz 0.0
  1 settings made for vx
  1 settings made for vy
  1 settings made for vz
#velocity v1 set 0.0 10.0 0.0 loop all
#velocity v2 set 0.0 -10.0 0.0 loop all

fix m3 all property/global coefficientRestitution peratomtypepair 1 ${restiv}
fix m3 all property/global coefficientRestitution peratomtypepair 1 0.31

reset_timestep 0
run	30000
Setting up run at Sat Feb 25 22:01:46 2023

Memory usage per processor = 12.0781 Mbytes
    Step    Atoms         KinEng         Volume 
       0        2      52.359878            400 
   10000        2      4.9789438            400 
   20000        2      4.9789438            400 
   30000        2      4.9789438            400 
Loop time of 0.0367509 on 1 procs for 30000 steps with 2 atoms, finish time Sat Feb 25 22:01:46 2023


Pair  time (%) = 0.00982279 (26.728)
Neigh time (%) = 0.00260326 (7.08352)
Comm  time (%) = 0.00579727 (15.7745)
Outpt time (%) = 0.000248957 (0.677418)
Other time (%) = 0.0182786 (49.7365)

Nlocal:    2 ave 2 max 2 min
Histogram: 1 0 0 0 0 0 0 0 0 0
Nghost:    4 ave 4 max 4 min
Histogram: 1 0 0 0 0 0 0 0 0 0
Neighs:    0 ave 0 max 0 min
Histogram: 1 0 0 0 0 0 0 0 0 0

Total # of neighbors = 0
Ave neighs/atom = 0
Neighbor list builds = 246
Dangerous builds = 0
unfix	m3
next r
undump	dmp
#undump dmp_local
#uncompute deltas
jump in.normalImpact loop
variable	r loop 6 100 # 100

## compute the array of overlaps, which will contain p-id 1, p-id 2, and their overlap [m]
#compute deltas all pair/gran/local id delta

# define output - t=0 and t=end
dump dmp all custom 30000 post/rest_$r_*.post id type x y z vx vy vz radius fx fy fz mass omegax omegay omegaz tqx tqy tqz
dump dmp all custom 30000 post/rest_32_*.post id type x y z vx vy vz radius fx fy fz mass omegax omegay omegaz tqx tqy tqz
#dump dmp_local all local 1000 post_computes/dump_$r_computes*.post c_deltas[1] c_deltas[2] c_deltas[4]

# calculate restitution
variable restiv equal (${r})/100
variable restiv equal (32)/100
print	"Restitution coefficient = ${restiv}"
Restitution coefficient = 0.32


# reset initial position and velocity
#create_atoms 1 single 0.0 50.0 0.0
#create_atoms 2 single 0.0 60.0 0.0

#set atom 1 x 0.0 y 50.0 z 0.0
#set atom 2 x 0.0 y 60.0 z 0.0

group v1 id 1
1 atoms in group v1
group v2 id 2
1 atoms in group v2

# for some reason, setting the positions in the way above (set atom atomID) changes the forces to NaN
# need to use setting velocites by group instead
set group v1 y 50.0
  1 settings made for y
set group v2 y 60.0
  1 settings made for y

set group v1 vx 0.0 vy 10.0 vz 0.0
  1 settings made for vx
  1 settings made for vy
  1 settings made for vz
set group v2 vx 0.0 vy -10.0 vz 0.0
  1 settings made for vx
  1 settings made for vy
  1 settings made for vz
#velocity v1 set 0.0 10.0 0.0 loop all
#velocity v2 set 0.0 -10.0 0.0 loop all

fix m3 all property/global coefficientRestitution peratomtypepair 1 ${restiv}
fix m3 all property/global coefficientRestitution peratomtypepair 1 0.32

reset_timestep 0
run	30000
Setting up run at Sat Feb 25 22:01:46 2023

Memory usage per processor = 12.0781 Mbytes
    Step    Atoms         KinEng         Volume 
       0        2      52.359878            400 
   10000        2      5.3562455            400 
   20000        2      5.3562455            400 
   30000        2      5.3562455            400 
Loop time of 0.0311786 on 1 procs for 30000 steps with 2 atoms, finish time Sat Feb 25 22:01:46 2023


Pair  time (%) = 0.00780231 (25.0246)
Neigh time (%) = 0.00254633 (8.16692)
Comm  time (%) = 0.00481921 (15.4568)
Outpt time (%) = 0.000202364 (0.649048)
Other time (%) = 0.0158084 (50.7027)

Nlocal:    2 ave 2 max 2 min
Histogram: 1 0 0 0 0 0 0 0 0 0
Nghost:    4 ave 4 max 4 min
Histogram: 1 0 0 0 0 0 0 0 0 0
Neighs:    0 ave 0 max 0 min
Histogram: 1 0 0 0 0 0 0 0 0 0

Total # of neighbors = 0
Ave neighs/atom = 0
Neighbor list builds = 249
Dangerous builds = 0
unfix	m3
next r
undump	dmp
#undump dmp_local
[...]
  1 settings made for vx
  1 settings made for vy
  1 settings made for vz
#velocity v1 set 0.0 10.0 0.0 loop all
#velocity v2 set 0.0 -10.0 0.0 loop all

fix m3 all property/global coefficientRestitution peratomtypepair 1 ${restiv}
fix m3 all property/global coefficientRestitution peratomtypepair 1 0.93

reset_timestep 0
run	30000
Setting up run at Sat Feb 25 22:01:49 2023

Memory usage per processor = 12.0781 Mbytes
    Step    Atoms         KinEng         Volume 
       0        2      52.359878            400 
   10000        2      45.301933            400 
   20000        2      45.301933            400 
   30000        2      45.301933            400 
Loop time of 0.0379273 on 1 procs for 30000 steps with 2 atoms, finish time Sat Feb 25 22:01:49 2023


Pair  time (%) = 0.00881041 (23.2297)
Neigh time (%) = 0.0043255 (11.4047)
Comm  time (%) = 0.00535835 (14.1279)
Outpt time (%) = 0.000208796 (0.550516)
Other time (%) = 0.0192243 (50.6872)

Nlocal:    2 ave 2 max 2 min
Histogram: 1 0 0 0 0 0 0 0 0 0
Nghost:    4 ave 4 max 4 min
Histogram: 1 0 0 0 0 0 0 0 0 0
Neighs:    0 ave 0 max 0 min
Histogram: 1 0 0 0 0 0 0 0 0 0

Total # of neighbors = 0
Ave neighs/atom = 0
Neighbor list builds = 451
Dangerous builds = 0
unfix	m3
next r
undump	dmp
#undump dmp_local
#uncompute deltas
jump in.normalImpact loop
variable	r loop 6 100 # 100

## compute the array of overlaps, which will contain p-id 1, p-id 2, and their overlap [m]
#compute deltas all pair/gran/local id delta

# define output - t=0 and t=end
dump dmp all custom 30000 post/rest_$r_*.post id type x y z vx vy vz radius fx fy fz mass omegax omegay omegaz tqx tqy tqz
dump dmp all custom 30000 post/rest_94_*.post id type x y z vx vy vz radius fx fy fz mass omegax omegay omegaz tqx tqy tqz
#dump dmp_local all local 1000 post_computes/dump_$r_computes*.post c_deltas[1] c_deltas[2] c_deltas[4]

# calculate restitution
variable restiv equal (${r})/100
variable restiv equal (94)/100
print	"Restitution coefficient = ${restiv}"
Restitution coefficient = 0.94


# reset initial position and velocity
#create_atoms 1 single 0.0 50.0 0.0
#create_atoms 2 single 0.0 60.0 0.0

#set atom 1 x 0.0 y 50.0 z 0.0
#set atom 2 x 0.0 y 60.0 z 0.0

group v1 id 1
1 atoms in group v1
group v2 id 2
1 atoms in group v2

# for some reason, setting the positions in the way above (set atom atomID) changes the forces to NaN
# need to use setting velocites by group instead
set group v1 y 50.0
  1 settings made for y
set group v2 y 60.0
  1 settings made for y

set group v1 vx 0.0 vy 10.0 vz 0.0
  1 settings made for vx
  1 settings made for vy
  1 settings made for vz
set group v2 vx 0.0 vy -10.0 vz 0.0
  1 settings made for vx
  1 settings made for vy
  1 settings made for vz
#velocity v1 set 0.0 10.0 0.0 loop all
#velocity v2 set 0.0 -10.0 0.0 loop all

fix m3 all property/global coefficientRestitution peratomtypepair 1 ${restiv}
fix m3 all property/global coefficientRestitution peratomtypepair 1 0.94

reset_timestep 0
run	30000
Setting up run at Sat Feb 25 22:01:49 2023

Memory usage per processor = 12.0781 Mbytes
    Step    Atoms         KinEng         Volume 
       0        2      52.359878            400 
   10000        2      46.294635            400 
   20000        2      46.294635            400 
   30000        2      46.294635            400 
Loop time of 0.049839 on 1 procs for 30000 steps with 2 atoms, finish time Sat Feb 25 22:01:49 2023


Pair  time (%) = 0.0119918 (24.0611)
Neigh time (%) = 0.00566275 (11.3621)
Comm  time (%) = 0.00720186 (14.4502)
Outpt time (%) = 0.000377985 (0.758412)
Other time (%) = 0.0246046 (49.3681)

Nlocal:    2 ave 2 max 2 min
Histogram: 1 0 0 0 0 0 0 0 0 0
Nghost:    4 ave 4 max 4 min
Histogram: 1 0 0 0 0 0 0 0 0 0
Neighs:    0 ave 0 max 0 min
Histogram: 1 0 0 0 0 0 0 0 0 0

Total # of neighbors = 0
Ave neighs/atom = 0
Neighbor list builds = 455
Dangerous builds = 0
unfix	m3
next r
undump	dmp
#undump dmp_local
#uncompute deltas
jump in.normalImpact loop
variable	r loop 6 100 # 100

## compute the array of overlaps, which will contain p-id 1, p-id 2, and their overlap [m]
#compute deltas all pair/gran/local id delta

# define output - t=0 and t=end
dump dmp all custom 30000 post/rest_$r_*.post id type x y z vx vy vz radius fx fy fz mass omegax omegay omegaz tqx tqy tqz
dump dmp all custom 30000 post/rest_95_*.post id type x y z vx vy vz radius fx fy fz mass omegax omegay omegaz tqx tqy tqz
#dump dmp_local all local 1000 post_computes/dump_$r_computes*.post c_deltas[1] c_deltas[2] c_deltas[4]

# calculate restitution
variable restiv equal (${r})/100
variable restiv equal (95)/100
print	"Restitution coefficient = ${restiv}"
Restitution coefficient = 0.95


# reset initial position and velocity
#create_atoms 1 single 0.0 50.0 0.0
#create_atoms 2 single 0.0 60.0 0.0

#set atom 1 x 0.0 y 50.0 z 0.0
#set atom 2 x 0.0 y 60.0 z 0.0

group v1 id 1
1 atoms in group v1
group v2 id 2
1 atoms in group v2

# for some reason, setting the positions in the way above (set atom atomID) changes the forces to NaN
# need to use setting velocites by group instead
set group v1 y 50.0
  1 settings made for y
set group v2 y 60.0
  1 settings made for y

set group v1 vx 0.0 vy 10.0 vz 0.0
  1 settings made for vx
  1 settings made for vy
  1 settings made for vz
set group v2 vx 0.0 vy -10.0 vz 0.0
  1 settings made for vx
  1 settings made for vy
  1 settings made for vz
#velocity v1 set 0.0 10.0 0.0 loop all
#velocity v2 set 0.0 -10.0 0.0 loop all

fix m3 all property/global coefficientRestitution peratomtypepair 1 ${restiv}
fix m3 all property/global coefficientRestitution peratomtypepair 1 0.95

reset_timestep 0
run	30000
Setting up run at Sat Feb 25 22:01:49 2023

Memory usage per processor = 12.0781 Mbytes
    Step    Atoms         KinEng         Volume 
       0        2      52.359878            400 
   10000        2      47.301055            400 
   20000        2      47.301055            400 
   30000        2      47.301055            400 
Loop time of 0.0377341 on 1 procs for 30000 steps with 2 atoms, finish time Sat Feb 25 22:01:49 2023


Pair  time (%) = 0.00848557 (22.4878)
Neigh time (%) = 0.00441291 (11.6948)
Comm  time (%) = 0.00540049 (14.312)
Outpt time (%) = 0.000263321 (0.697833)
Other time (%) = 0.0191718 (50.8077)

Nlocal:    2 ave 2 max 2 min
Histogram: 1 0 0 0 0 0 0 0 0 0
Nghost:    4 ave 4 max 4 min
Histogram: 1 0 0 0 0 0 0 0 0 0
Neighs:    0 ave 0 max 0 min
Histogram: 1 0 0 0 0 0 0 0 0 0

Total # of neighbors = 0
Ave neighs/atom = 0
Neighbor list builds = 460
Dangerous builds = 0
unfix	m3
next r
undump	dmp
#undump dmp_local
#uncompute deltas
jump in.normalImpact loop
variable	r loop 6 100 # 100

## compute the array of overlaps, which will contain p-id 1, p-id 2, and their overlap [m]
#compute deltas all pair/gran/local id delta

# define output - t=0 and t=end
dump dmp all custom 30000 post/rest_$r_*.post id type x y z vx vy vz radius fx fy fz mass omegax omegay omegaz tqx tqy tqz
dump dmp all custom 30000 post/rest_96_*.post id type x y z vx vy vz radius fx fy fz mass omegax omegay omegaz tqx tqy tqz
#dump dmp_local all local 1000 post_computes/dump_$r_computes*.post c_deltas[1] c_deltas[2] c_deltas[4]

# calculate restitution
variable restiv equal (${r})/100
variable restiv equal (96)/100
print	"Restitution coefficient = ${restiv}"
Restitution coefficient = 0.96


# reset initial position and velocity
#create_atoms 1 single 0.0 50.0 0.0
#create_atoms 2 single 0.0 60.0 0.0

#set atom 1 x 0.0 y 50.0 z 0.0
#set atom 2 x 0.0 y 60.0 z 0.0

group v1 id 1
1 atoms in group v1
group v2 id 2
1 atoms in group v2

# for some reason, setting the positions in the way above (set atom atomID) changes the forces to NaN
# need to use setting velocites by group instead
set group v1 y 50.0
  1 settings made for y
set group v2 y 60.0
  1 settings made for y

set group v1 vx 0.0 vy 10.0 vz 0.0
  1 settings made for vx
  1 settings made for vy
  1 settings made for vz
set group v2 vx 0.0 vy -10.0 vz 0.0
  1 settings made for vx
  1 settings made for vy
  1 settings made for vz
#velocity v1 set 0.0 10.0 0.0 loop all
#velocity v2 set 0.0 -10.0 0.0 loop all

fix m3 all property/global coefficientRestitution peratomtypepair 1 ${restiv}
fix m3 all property/global coefficientRestitution peratomtypepair 1 0.96

reset_timestep 0
run	30000
Setting up run at Sat Feb 25 22:01:49 2023

Memory usage per processor = 12.0781 Mbytes
    Step    Atoms         KinEng         Volume 
       0        2      52.359878            400 
   10000        2      48.290177            400 
   20000        2      48.290177            400 
   30000        2      48.290177            400 
Loop time of 0.0382874 on 1 procs for 30000 steps with 2 atoms, finish time Sat Feb 25 22:01:49 2023


Pair  time (%) = 0.0089021 (23.2507)
Neigh time (%) = 0.00439925 (11.4901)
Comm  time (%) = 0.00544162 (14.2125)
Outpt time (%) = 0.000201852 (0.527202)
Other time (%) = 0.0193426 (50.5195)

Nlocal:    2 ave 2 max 2 min
Histogram: 1 0 0 0 0 0 0 0 0 0
Nghost:    4 ave 4 max 4 min
Histogram: 1 0 0 0 0 0 0 0 0 0
Neighs:    0 ave 0 max 0 min
Histogram: 1 0 0 0 0 0 0 0 0 0

Total # of neighbors = 0
Ave neighs/atom = 0
Neighbor list builds = 460
Dangerous builds = 0
unfix	m3
next r
undump	dmp
#undump dmp_local
#uncompute deltas
jump in.normalImpact loop
variable	r loop 6 100 # 100

## compute the array of overlaps, which will contain p-id 1, p-id 2, and their overlap [m]
#compute deltas all pair/gran/local id delta

# define output - t=0 and t=end
dump dmp all custom 30000 post/rest_$r_*.post id type x y z vx vy vz radius fx fy fz mass omegax omegay omegaz tqx tqy tqz
dump dmp all custom 30000 post/rest_97_*.post id type x y z vx vy vz radius fx fy fz mass omegax omegay omegaz tqx tqy tqz
#dump dmp_local all local 1000 post_computes/dump_$r_computes*.post c_deltas[1] c_deltas[2] c_deltas[4]

# calculate restitution
variable restiv equal (${r})/100
variable restiv equal (97)/100
print	"Restitution coefficient = ${restiv}"
Restitution coefficient = 0.97


# reset initial position and velocity
#create_atoms 1 single 0.0 50.0 0.0
#create_atoms 2 single 0.0 60.0 0.0

#set atom 1 x 0.0 y 50.0 z 0.0
#set atom 2 x 0.0 y 60.0 z 0.0

group v1 id 1
1 atoms in group v1
group v2 id 2
1 atoms in group v2

# for some reason, setting the positions in the way above (set atom atomID) changes the forces to NaN
# need to use setting velocites by group instead
set group v1 y 50.0
  1 settings made for y
set group v2 y 60.0
  1 settings made for y

set group v1 vx 0.0 vy 10.0 vz 0.0
  1 settings made for vx
  1 settings made for vy
  1 settings made for vz
set group v2 vx 0.0 vy -10.0 vz 0.0
  1 settings made for vx
  1 settings made for vy
  1 settings made for vz
#velocity v1 set 0.0 10.0 0.0 loop all
#velocity v2 set 0.0 -10.0 0.0 loop all

fix m3 all property/global coefficientRestitution peratomtypepair 1 ${restiv}
fix m3 all property/global coefficientRestitution peratomtypepair 1 0.97

reset_timestep 0
run	30000
Setting up run at Sat Feb 25 22:01:49 2023

Memory usage per processor = 12.0781 Mbytes
    Step    Atoms         KinEng         Volume 
       0        2      52.359878            400 
   10000        2      49.290949            400 
   20000        2      49.290949            400 
   30000        2      49.290949            400 
Loop time of 0.0427922 on 1 procs for 30000 steps with 2 atoms, finish time Sat Feb 25 22:01:49 2023


Pair  time (%) = 0.0100863 (23.5705)
Neigh time (%) = 0.00560229 (13.0919)
Comm  time (%) = 0.00601939 (14.0666)
Outpt time (%) = 0.000222801 (0.520658)
Other time (%) = 0.0208613 (48.7504)

Nlocal:    2 ave 2 max 2 min
Histogram: 1 0 0 0 0 0 0 0 0 0
Nghost:    4 ave 4 max 4 min
Histogram: 1 0 0 0 0 0 0 0 0 0
Neighs:    0 ave 0 max 0 min
Histogram: 1 0 0 0 0 0 0 0 0 0

Total # of neighbors = 0
Ave neighs/atom = 0
Neighbor list builds = 465
Dangerous builds = 0
unfix	m3
next r
undump	dmp
#undump dmp_local
#uncompute deltas
jump in.normalImpact loop
variable	r loop 6 100 # 100

## compute the array of overlaps, which will contain p-id 1, p-id 2, and their overlap [m]
#compute deltas all pair/gran/local id delta

# define output - t=0 and t=end
dump dmp all custom 30000 post/rest_$r_*.post id type x y z vx vy vz radius fx fy fz mass omegax omegay omegaz tqx tqy tqz
dump dmp all custom 30000 post/rest_98_*.post id type x y z vx vy vz radius fx fy fz mass omegax omegay omegaz tqx tqy tqz
#dump dmp_local all local 1000 post_computes/dump_$r_computes*.post c_deltas[1] c_deltas[2] c_deltas[4]

# calculate restitution
variable restiv equal (${r})/100
variable restiv equal (98)/100
print	"Restitution coefficient = ${restiv}"
Restitution coefficient = 0.98


# reset initial position and velocity
#create_atoms 1 single 0.0 50.0 0.0
#create_atoms 2 single 0.0 60.0 0.0

#set atom 1 x 0.0 y 50.0 z 0.0
#set atom 2 x 0.0 y 60.0 z 0.0

group v1 id 1
1 atoms in group v1
group v2 id 2
1 atoms in group v2

# for some reason, setting the positions in the way above (set atom atomID) changes the forces to NaN
# need to use setting velocites by group instead
set group v1 y 50.0
  1 settings made for y
set group v2 y 60.0
  1 settings made for y

set group v1 vx 0.0 vy 10.0 vz 0.0
  1 settings made for vx
  1 settings made for vy
  1 settings made for vz
set group v2 vx 0.0 vy -10.0 vz 0.0
  1 settings made for vx
  1 settings made for vy
  1 settings made for vz
#velocity v1 set 0.0 10.0 0.0 loop all
#velocity v2 set 0.0 -10.0 0.0 loop all

fix m3 all property/global coefficientRestitution peratomtypepair 1 ${restiv}
fix m3 all property/global coefficientRestitution peratomtypepair 1 0.98

reset_timestep 0
run	30000
Setting up run at Sat Feb 25 22:01:49 2023

Memory usage per processor = 12.0781 Mbytes
    Step    Atoms         KinEng         Volume 
       0        2      52.359878            400 
   10000        2      50.303332            400 
   20000        2      50.303332            400 
   30000        2      50.303332            400 
Loop time of 0.0353731 on 1 procs for 30000 steps with 2 atoms, finish time Sat Feb 25 22:01:49 2023


Pair  time (%) = 0.0082454 (23.3098)
Neigh time (%) = 0.00411794 (11.6414)
Comm  time (%) = 0.00492591 (13.9256)
Outpt time (%) = 0.000210416 (0.594847)
Other time (%) = 0.0178735 (50.5284)

Nlocal:    2 ave 2 max 2 min
Histogram: 1 0 0 0 0 0 0 0 0 0
Nghost:    4 ave 4 max 4 min
Histogram: 1 0 0 0 0 0 0 0 0 0
Neighs:    0 ave 0 max 0 min
Histogram: 1 0 0 0 0 0 0 0 0 0

Total # of neighbors = 0
Ave neighs/atom = 0
Neighbor list builds = 470
Dangerous builds = 0
unfix	m3
next r
undump	dmp
#undump dmp_local
#uncompute deltas
jump in.normalImpact loop
variable	r loop 6 100 # 100

## compute the array of overlaps, which will contain p-id 1, p-id 2, and their overlap [m]
#compute deltas all pair/gran/local id delta

# define output - t=0 and t=end
dump dmp all custom 30000 post/rest_$r_*.post id type x y z vx vy vz radius fx fy fz mass omegax omegay omegaz tqx tqy tqz
dump dmp all custom 30000 post/rest_99_*.post id type x y z vx vy vz radius fx fy fz mass omegax omegay omegaz tqx tqy tqz
#dump dmp_local all local 1000 post_computes/dump_$r_computes*.post c_deltas[1] c_deltas[2] c_deltas[4]

# calculate restitution
variable restiv equal (${r})/100
variable restiv equal (99)/100
print	"Restitution coefficient = ${restiv}"
Restitution coefficient = 0.99


# reset initial position and velocity
#create_atoms 1 single 0.0 50.0 0.0
#create_atoms 2 single 0.0 60.0 0.0

#set atom 1 x 0.0 y 50.0 z 0.0
#set atom 2 x 0.0 y 60.0 z 0.0

group v1 id 1
1 atoms in group v1
group v2 id 2
1 atoms in group v2

# for some reason, setting the positions in the way above (set atom atomID) changes the forces to NaN
# need to use setting velocites by group instead
set group v1 y 50.0
  1 settings made for y
set group v2 y 60.0
  1 settings made for y

set group v1 vx 0.0 vy 10.0 vz 0.0
  1 settings made for vx
  1 settings made for vy
  1 settings made for vz
set group v2 vx 0.0 vy -10.0 vz 0.0
  1 settings made for vx
  1 settings made for vy
  1 settings made for vz
#velocity v1 set 0.0 10.0 0.0 loop all
#velocity v2 set 0.0 -10.0 0.0 loop all

fix m3 all property/global coefficientRestitution peratomtypepair 1 ${restiv}
fix m3 all property/global coefficientRestitution peratomtypepair 1 0.99

reset_timestep 0
run	30000
Setting up run at Sat Feb 25 22:01:49 2023

Memory usage per processor = 12.0781 Mbytes
    Step    Atoms         KinEng         Volume 
       0        2      52.359878            400 
   10000        2      51.327281            400 
   20000        2      51.327281            400 
   30000        2      51.327281            400 
Loop time of 0.0354945 on 1 procs for 30000 steps with 2 atoms, finish time Sat Feb 25 22:01:49 2023


Pair  time (%) = 0.0081796 (23.0447)
Neigh time (%) = 0.00414963 (11.6909)
Comm  time (%) = 0.00498351 (14.0402)
Outpt time (%) = 0.000298067 (0.839755)
Other time (%) = 0.0178837 (50.3845)

Nlocal:    2 ave 2 max 2 min
Histogram: 1 0 0 0 0 0 0 0 0 0
Nghost:    4 ave 4 max 4 min
Histogram: 1 0 0 0 0 0 0 0 0 0
Neighs:    0 ave 0 max 0 min
Histogram: 1 0 0 0 0 0 0 0 0 0

Total # of neighbors = 0
Ave neighs/atom = 0
Neighbor list builds = 470
Dangerous builds = 0
unfix	m3
next r
undump	dmp
#undump dmp_local
#uncompute deltas
jump in.normalImpact loop
variable	r loop 6 100 # 100

## compute the array of overlaps, which will contain p-id 1, p-id 2, and their overlap [m]
#compute deltas all pair/gran/local id delta

# define output - t=0 and t=end
dump dmp all custom 30000 post/rest_$r_*.post id type x y z vx vy vz radius fx fy fz mass omegax omegay omegaz tqx tqy tqz
dump dmp all custom 30000 post/rest_100_*.post id type x y z vx vy vz radius fx fy fz mass omegax omegay omegaz tqx tqy tqz
#dump dmp_local all local 1000 post_computes/dump_$r_computes*.post c_deltas[1] c_deltas[2] c_deltas[4]

# calculate restitution
variable restiv equal (${r})/100
variable restiv equal (100)/100
print	"Restitution coefficient = ${restiv}"
Restitution coefficient = 1


# reset initial position and velocity
#create_atoms 1 single 0.0 50.0 0.0
#create_atoms 2 single 0.0 60.0 0.0

#set atom 1 x 0.0 y 50.0 z 0.0
#set atom 2 x 0.0 y 60.0 z 0.0

group v1 id 1
1 atoms in group v1
group v2 id 2
1 atoms in group v2

# for some reason, setting the positions in the way above (set atom atomID) changes the forces to NaN
# need to use setting velocites by group instead
set group v1 y 50.0
  1 settings made for y
set group v2 y 60.0
  1 settings made for y

set group v1 vx 0.0 vy 10.0 vz 0.0
  1 settings made for vx
  1 settings made for vy
  1 settings made for vz
set group v2 vx 0.0 vy -10.0 vz 0.0
  1 settings made for vx
  1 settings made for vy
  1 settings made for vz
#velocity v1 set 0.0 10.0 0.0 loop all
#velocity v2 set 0.0 -10.0 0.0 loop all

fix m3 all property/global coefficientRestitution peratomtypepair 1 ${restiv}
fix m3 all property/global coefficientRestitution peratomtypepair 1 1

reset_timestep 0
run	30000
Setting up run at Sat Feb 25 22:01:49 2023

Memory usage per processor = 12.0781 Mbytes
    Step    Atoms         KinEng         Volume 
       0        2      52.359878            400 
   10000        2      52.362737            400 
   20000        2      52.362737            400 
   30000        2      52.362737            400 
Loop time of 0.0353441 on 1 procs for 30000 steps with 2 atoms, finish time Sat Feb 25 22:01:49 2023


Pair  time (%) = 0.00809212 (22.8953)
Neigh time (%) = 0.00414801 (11.7361)
Comm  time (%) = 0.00498285 (14.0981)
Outpt time (%) = 0.00016659 (0.471338)
Other time (%) = 0.0179545 (50.7992)

Nlocal:    2 ave 2 max 2 min
Histogram: 1 0 0 0 0 0 0 0 0 0
Nghost:    4 ave 4 max 4 min
Histogram: 1 0 0 0 0 0 0 0 0 0
Neighs:    0 ave 0 max 0 min
Histogram: 1 0 0 0 0 0 0 0 0 0

Total # of neighbors = 0
Ave neighs/atom = 0
Neighbor list builds = 475
Dangerous builds = 0
unfix	m3
next r
undump	dmp
#undump dmp_local
#uncompute deltas
jump in.normalImpact loop




