ITEM: TIMESTEP
2
ITEM: NUMBER OF ATOMS
2
ITEM: BOX BOUNDS ff ff ff
-10 10
-10 10
-10 10
ITEM: ATOMS id type fx fy fz x y z radius mux muy muz 
2 1 1.38655e-23 7.05892e-21 4.09774e-07 0 0 -2.1 1 0 0 3.32089 
1 1 2.55659e-22 2.49213e-21 -4.0939e-07 0 0 0 1 0 0 3.32089 
