ITEM: TIMESTEP
1
ITEM: NUMBER OF ATOMS
2
ITEM: BOX BOUNDS ff ff ff
-10 10
-10 10
-10 10
ITEM: ATOMS id type fx fy fz x y z radius mux muy muz 
2 1 -1.13126e-20 -4.12016e-21 7.79327e-09 0 0 -2.1 1 0 3.05902 0 
1 1 3.93438e-21 -1.81732e-21 -7.79326e-09 0 0 0 1 0 3.05901 0 
