ITEM: TIMESTEP
2
ITEM: NUMBER OF ATOMS
2
ITEM: BOX BOUNDS ff ff ff
-10 10
-10 10
-10 10
ITEM: ATOMS id type fx fy fz x y z radius mux muy muz 
2 1 -2.23313e-20 -1.14905e-21 8.96571e-11 0 0 -4 1 0 3.12937 0 
1 1 2.22689e-20 -1.38391e-21 -8.96571e-11 0 0 0 1 0 3.12937 0 
