ITEM: TIMESTEP
1
ITEM: NUMBER OF ATOMS
2
ITEM: BOX BOUNDS ff ff ff
-10 10
-10 10
-10 10
ITEM: ATOMS id type fx fy fz x y z radius mux muy muz 
2 1 1.04001e-20 5.98288e-22 6.64564e-10 0 0 -3 1 0 3.11277 0 
1 1 -7.81732e-21 -1.30088e-21 -6.64564e-10 0 0 0 1 0 3.11277 0 
