ITEM: TIMESTEP
0
ITEM: NUMBER OF ATOMS
2
ITEM: BOX BOUNDS ff ff ff
-10 10
-10 10
-10 10
ITEM: ATOMS id type fx fy fz x y z radius mux muy muz 
2 1 1.60072e-20 1.34276e-21 1.28197e-10 0 0 -3.8 1 0 3.12735 0 
1 1 -6.00275e-21 -1.39272e-22 -1.28196e-10 0 0 0 1 0 3.12734 0 
