ITEM: TIMESTEP
2
ITEM: NUMBER OF ATOMS
2
ITEM: BOX BOUNDS ff ff ff
-10 10
-10 10
-10 10
ITEM: ATOMS id type fx fy fz x y z radius mux muy muz 
2 1 3.66493e-21 5.27317e-22 5.29177e-10 0 0 -3.1 1 0 3.11545 0 
1 1 -3.50381e-21 1.00983e-21 -5.29177e-10 0 0 0 1 0 3.11545 0 
