ITEM: TIMESTEP
0
ITEM: NUMBER OF ATOMS
2
ITEM: BOX BOUNDS ff ff ff
-10 10
-10 10
-10 10
ITEM: ATOMS id type fx fy fz x y z radius mux muy muz 
2 1 9.27347e-21 -1.9957e-21 2.78231e-10 0 0 -3.4 1 0 3.12175 0 
1 1 -2.25386e-20 1.40538e-22 -2.7823e-10 0 0 0 1 0 3.12174 0 
