ITEM: TIMESTEP
2
ITEM: NUMBER OF ATOMS
2
ITEM: BOX BOUNDS ff ff ff
-10 10
-10 10
-10 10
ITEM: ATOMS id type fx fy fz x y z radius mux muy muz 
2 1 9.18057e-21 -1.19059e-21 1.8691e-10 0 0 -3.6 1 0 3.12485 0 
1 1 -8.1941e-21 -1.83667e-21 -1.8691e-10 0 0 0 1 0 3.12485 0 
