ITEM: TIMESTEP
0
ITEM: NUMBER OF ATOMS
2
ITEM: BOX BOUNDS ff ff ff
-10 10
-10 10
-10 10
ITEM: ATOMS id type fx fy fz x y z radius mux muy muz 
2 1 9.12263e-22 9.72746e-22 1.06958e-10 0 0 -3.9 1 0 3.12841 0 
1 1 -1.07553e-20 -2.37377e-22 -1.06958e-10 0 0 0 1 0 3.12841 0 
