ITEM: TIMESTEP
2
ITEM: NUMBER OF ATOMS
2
ITEM: BOX BOUNDS ff ff ff
-10 10
-10 10
-10 10
ITEM: ATOMS id type fx fy fz x y z radius mux muy muz 
2 1 -1.11169e-21 -2.81564e-21 5.66598e-09 0 0 -2.2 1 0 3.06952 0 
1 1 9.74347e-21 1.14215e-21 -5.66598e-09 0 0 0 1 0 3.06952 0 
