ITEM: TIMESTEP
0
ITEM: NUMBER OF ATOMS
2
ITEM: BOX BOUNDS ff ff ff
-10 10
-10 10
-10 10
ITEM: ATOMS id type fx fy fz x y z radius mux muy muz 
2 1 -7.27801e-21 -3.59334e-22 3.42476e-10 0 0 -3.3 1 0 3.1199 0 
1 1 3.45308e-20 -1.78232e-22 -3.42474e-10 0 0 0 1 0 3.11989 0 
