ITEM: TIMESTEP
0
ITEM: NUMBER OF ATOMS
2
ITEM: BOX BOUNDS ff ff ff
-10 10
-10 10
-10 10
ITEM: ATOMS id type fx fy fz x y z radius mux muy muz 
2 1 1.99758e-21 9.60058e-22 5.65697e-09 0 0 -2.2 1 0 3.06977 0 
1 1 6.34317e-21 -7.57585e-22 -5.6565e-09 0 0 0 1 0 3.06952 0 
