ITEM: TIMESTEP
1
ITEM: NUMBER OF ATOMS
2
ITEM: BOX BOUNDS ff ff ff
-10 10
-10 10
-10 10
ITEM: ATOMS id type fx fy fz x y z radius mux muy muz 
2 1 1.99788e-20 -7.7223e-23 2.78312e-10 0 0 -3.4 1 0 3.12174 0 
1 1 -2.11859e-20 9.97648e-23 -2.78312e-10 0 0 0 1 0 3.12174 0 
