ITEM: TIMESTEP
0
ITEM: NUMBER OF ATOMS
2
ITEM: BOX BOUNDS ff ff ff
-10 10
-10 10
-10 10
ITEM: ATOMS id type fx fy fz x y z radius mux muy muz 
2 1 2.67847e-20 -1.73403e-21 4.24208e-10 0 0 -3.2 1 0 3.11782 0 
1 1 -2.64246e-20 -2.56051e-21 -4.24206e-10 0 0 0 1 0 3.11781 0 
