ITEM: TIMESTEP
2
ITEM: NUMBER OF ATOMS
2
ITEM: BOX BOUNDS ff ff ff
-10 10
-10 10
-10 10
ITEM: ATOMS id type fx fy fz x y z radius mux muy muz 
2 1 -1.13067e-20 -2.57795e-21 1.79188e-09 0 0 -2.6 1 0 3.09753 0 
1 1 -4.87813e-21 -1.06025e-21 -1.79188e-09 0 0 0 1 0 3.09753 0 
