ITEM: TIMESTEP
0
ITEM: NUMBER OF ATOMS
2
ITEM: BOX BOUNDS ff ff ff
-10 10
-10 10
-10 10
ITEM: ATOMS id type fx fy fz x y z radius mux muy muz 
2 1 2.84126e-20 -1.11896e-21 1.79039e-09 0 0 -2.6 1 0 3.09761 0 
1 1 1.82159e-20 -2.86751e-22 -1.79034e-09 0 0 0 1 0 3.09753 0 
