ITEM: TIMESTEP
1
ITEM: NUMBER OF ATOMS
2
ITEM: BOX BOUNDS ff ff ff
-10 10
-10 10
-10 10
ITEM: ATOMS id type fx fy fz x y z radius mux muy muz 
2 1 -1.8428e-20 -2.08485e-21 5.66598e-09 0 0 -2.2 1 0 3.06952 0 
1 1 7.28981e-22 -9.12803e-22 -5.66598e-09 0 0 0 1 0 3.06952 0 
