LIGGGHTS (Version LIGGGHTS-PUBLIC 3.8.0, compiled 2022-09-27-15:26:50 by anmol, git commit unknown)
atom_style	hybrid granular dipole
boundary	f f f
newton		off
atom_modify	sort 10000 0

communicate	single vel yes
units		si
processors	1 1 1


soft_particles yes

# variable reg_dim equal 10 #meters

region		reg block -1 1 -1 1 0 10 units box
create_box	1 reg
Created orthogonal box = (-1 -1 0) to (1 1 10)
  1 by 1 by 1 MPI processor grid
neighbor	2 bin
neigh_modify	delay 0 every 1

## Material Property variables
variable restiv equal 0.06
variable static_fric equal 0.3
variable rolling_fric equal 0
variable visc_damp equal 0
variable k_c equal 40000
variable r_p equal 0.00125
## Material properties
fix            m1 all property/global youngsModulus peratomtype 5e6
fix            m2 all property/global poissonsRatio peratomtype 0.3
fix       m3 all property/global coefficientRestitution peratomtypepair 1 ${restiv}
fix       m3 all property/global coefficientRestitution peratomtypepair 1 0.06
fix            m4 all property/global coefficientFriction peratomtypepair 1 ${static_fric}
fix            m4 all property/global coefficientFriction peratomtypepair 1 0.3
fix            m5 all property/global characteristicVelocity scalar .01
fix            m6 all property/global cohesionEnergyDensity peratomtypepair 1 ${k_c}
fix            m6 all property/global cohesionEnergyDensity peratomtypepair 1 40000
fix       m7 all property/global coefficientRollingFriction peratomtypepair 1 ${rolling_fric}
fix       m7 all property/global coefficientRollingFriction peratomtypepair 1 0
fix       m8 all property/global coefficientRollingViscousDamping peratomtypepair 1 ${visc_damp}
fix       m8 all property/global coefficientRollingViscousDamping peratomtypepair 1 0


pair_style gran model hertz tangential history cohesion sjkr
pair_coeff	* *

timestep	10e-6 # seconds

#radius of atoms
variable atom_rad equal 0.5 #meters
#diameter of atoms
variable atom_dia equal 2*${atom_rad}
variable atom_dia equal 2*0.5
# #separation between the atoms
# variable sep equal 5*${atom_rad}

# create_atoms	1 single 0 0
create_atoms	1 single 0 0 5
Created 1 atoms
set		        atom 1 diameter ${atom_dia} mass 1.0
set		        atom 1 diameter 1 mass 1.0
  1 settings made for diameter
  1 settings made for mass
group           atom_i id 1
1 atoms in group atom_i


create_atoms	1 single 0 0 4
Created 1 atoms
set             atom 2 diameter ${atom_dia} mass 1.0
set             atom 2 diameter 1 mass 1.0
  1 settings made for diameter
  1 settings made for mass

# velocity        atom_i set 0 0 -0.01

fix             int all nve/sphere


dump            dmp all custom 1000 post/dump*.liggghts id type fx fy fz x y z radius mass
#dump_modify dmp format "%d %d %1.23f %1.23f %1.23f %1.23f %1.23f %1.23f %1.23f %1.23f %1.23f %1.23f"

fix             grav all gravity 10 vector 0.0 0.0 -1.0
fix zwalls all wall/gran model hertz tangential history primitive type 1 zplane 3.5


run	            100000
Setting up run at Fri Oct 28 04:14:23 2022

Memory usage per processor = 9.03707 Mbytes
    Step    Atoms         KinEng            CPU 
       0        2              0              0 
  100000        2  1.0007722e-22    0.094383946 
Loop time of 0.0944168 on 1 procs for 100000 steps with 2 atoms, finish time Fri Oct 28 04:14:23 2022


Pair  time (%) = 0.0352421 (37.3261)
Neigh time (%) = 0 (0)
Comm  time (%) = 0.00374729 (3.96888)
Outpt time (%) = 0.00803845 (8.51379)
Other time (%) = 0.047389 (50.1912)

Nlocal:    2 ave 2 max 2 min
Histogram: 1 0 0 0 0 0 0 0 0 0
Nghost:    0 ave 0 max 0 min
Histogram: 1 0 0 0 0 0 0 0 0 0
Neighs:    1 ave 1 max 1 min
Histogram: 1 0 0 0 0 0 0 0 0 0

Total # of neighbors = 1
Ave neighs/atom = 0.5
Neighbor list builds = 0
Dangerous builds = 0

unfix zwalls

fix             pos_fix atom_i freeze

run             200000
Setting up run at Fri Oct 28 04:14:23 2022

Memory usage per processor = 8.8082 Mbytes
    Step    Atoms         KinEng            CPU 
  100000        2  1.0007722e-22              0 
  300000        2  2.4548773e-22     0.13896621 
Loop time of 0.138974 on 1 procs for 200000 steps with 2 atoms, finish time Fri Oct 28 04:14:24 2022


Pair  time (%) = 0.0632956 (45.5449)
Neigh time (%) = 0 (0)
Comm  time (%) = 0.00708832 (5.10046)
Outpt time (%) = 0.015948 (11.4755)
Other time (%) = 0.0526422 (37.8791)

Nlocal:    2 ave 2 max 2 min
Histogram: 1 0 0 0 0 0 0 0 0 0
Nghost:    0 ave 0 max 0 min
Histogram: 1 0 0 0 0 0 0 0 0 0
Neighs:    1 ave 1 max 1 min
Histogram: 1 0 0 0 0 0 0 0 0 0

Total # of neighbors = 1
Ave neighs/atom = 0.5
Neighbor list builds = 0
Dangerous builds = 0
