ITEM: TIMESTEP
0
ITEM: NUMBER OF ATOMS
2
ITEM: BOX BOUNDS ff ff ff
-10 10
-10 10
-10 10
ITEM: ATOMS id type fx fy fz x y z radius mux muy muz 
2 1 1.65339e-20 2.79732e-21 -6.65451e-08 0 0 -2.5 1 0 3.09222 0 
1 1 -1.42724e-20 -4.50206e-21 6.65403e-08 0 0 0 1 0 3.09212 0 
