ITEM: TIMESTEP
1
ITEM: NUMBER OF ATOMS
2
ITEM: BOX BOUNDS ff ff ff
-10 10
-10 10
-10 10
ITEM: ATOMS id type fx fy fz x y z radius mux muy muz 
2 1 7.64228e-21 3.1077e-21 -8.88022e-08 0 0 -2.3 1 0 3.07834 0 
1 1 -1.77373e-20 6.34859e-21 8.88022e-08 0 0 0 1 0 3.07834 0 
