ITEM: TIMESTEP
3
ITEM: NUMBER OF ATOMS
1
ITEM: BOX BOUNDS ff ff ff
-10 10
-10 10
-10 10
ITEM: ATOMS id type fx fy fz x y z radius mux muy muz 
3 1 2.1473e-20 -2.23936e-20 1.55826e-07 0 0 -4 1 0 3.12974 0 
