ITEM: TIMESTEP
0
ITEM: NUMBER OF ATOMS
1
ITEM: BOX BOUNDS ff ff ff
-10 10
-10 10
-10 10
ITEM: ATOMS id type fx fy fz x y z radius mux muy muz 
3 1 -5.81093e-21 4.51479e-22 1.01536e-07 0 0 -2.4 1 0 3.08765 0 
