ITEM: TIMESTEP
0
ITEM: NUMBER OF ATOMS
3
ITEM: BOX BOUNDS ff ff ff
-10 10
-10 10
-10 10
ITEM: ATOMS id type fx fy fz x y z radius mux muy muz 
3 1 -1.7792e-10 1.65049e-09 -24263.2 0 0 -2.2 1 0 2.44463e+06 0 
2 1 -3.64247e-08 3.14699e-09 -55791.8 0 0 0 1 0 2.36678e+06 0 
1 1 -4.58467e-09 2.79388e-09 80345.2 0 0 2 1 0 2.42604e+06 0 
