ITEM: TIMESTEP
2
ITEM: NUMBER OF ATOMS
3
ITEM: BOX BOUNDS ff ff ff
-10 10
-10 10
-10 10
ITEM: ATOMS id type fx fy fz x y z radius mux muy muz 
3 1 -9.0374e-09 1.02357e-08 28674.3 0 0 -2.5 1 0 2.46184e+06 0 
2 1 -2.15335e-08 -2.03536e-08 -109242 0 0 0 1 0 2.38481e+06 0 
1 1 2.59519e-08 2.70647e-10 81094.2 0 0 2 1 0 2.42547e+06 0 
