ITEM: TIMESTEP
2
ITEM: NUMBER OF ATOMS
5
ITEM: BOX BOUNDS ff ff ff
-10 10
-10 10
-10 10
ITEM: ATOMS id type fx fy fz x y z radius mux muy muz 
3 1 -nan -nan -nan 0 0 -2.1 1 0 -5e+06 0 
1 1 -nan -nan -nan 0 0 -2 1 0 5e+06 0 
2 1 nan nan nan 0 0 0 1 -nan -nan -nan 
4 1 nan nan nan 0 0 0 0.5 -nan -nan -nan 
5 1 nan nan nan 0 0 2 0.5 -nan -nan -nan 
