ITEM: TIMESTEP
1
ITEM: NUMBER OF ATOMS
3
ITEM: BOX BOUNDS ff ff ff
-10 10
-10 10
-10 10
ITEM: ATOMS id type fx fy fz x y z radius mux muy muz 
3 1 7.02806e-09 -7.41281e-09 25448.1 0 0 -2 1 0 2.41488e+06 0 
1 1 0 -3.91932e-08 -100.138 0 0 0 1 0 2.34908e+06 0 
2 1 -1.68163e-08 -2.84213e-09 -25150 0 0 2 1 0 2.41716e+06 0 
