ITEM: TIMESTEP
2
ITEM: NUMBER OF ATOMS
3
ITEM: BOX BOUNDS ff ff ff
-10 10
-10 10
-10 10
ITEM: ATOMS id type fx fy fz x y z radius mux muy muz 
3 1 7.95675e-09 -4.15739e-09 78394 0 0 -3.1 1 0 2.47983e+06 0 
2 1 -2.10235e-08 8.51814e-09 -159708 0 0 0 1 0 2.40341e+06 0 
1 1 9.74314e-09 -7.09604e-09 81866.2 0 0 2 1 0 2.42489e+06 0 
