ITEM: TIMESTEP
0
ITEM: NUMBER OF ATOMS
2
ITEM: BOX BOUNDS ff ff ff
-0.1 0.1
-0.1 0.1
-0.1 0.1
ITEM: ATOMS id type fx fy fz x y z radius mux muy muz 
1 1 -5.03588e-13 1.13406e-13 -410.06 0 0 0 1.4e-06 0 3.99127e-15 0 
2 1 5.03588e-13 1.13406e-13 410.06 0 0 3.08e-06 1.4e-06 0 3.9004e-15 0 
