ITEM: TIMESTEP
0
ITEM: NUMBER OF ATOMS
3
ITEM: BOX BOUNDS ff ff ff
-10 10
-10 10
-10 10
ITEM: ATOMS id type fx fy fz x y z radius mux muy muz 
3 1 4.32842e-09 8.61842e-09 66934.4 0 0 -2.9 1 0 2.47544e+06 0 
2 1 1.39329e-08 -1.28294e-08 -148037 0 0 0 1 0 2.39884e+06 0 
1 1 2.45926e-09 -7.75372e-10 81676.5 0 0 2 1 0 2.42504e+06 0 
