ITEM: TIMESTEP
2
ITEM: NUMBER OF ATOMS
3
ITEM: BOX BOUNDS ff ff ff
-10 10
-10 10
-10 10
ITEM: ATOMS id type fx fy fz x y z radius mux muy muz 
1 1 4.0718e-21 -1.46779e-20 4.52348e-08 0 0 -2.5 1 0 3.09207 0 
2 1 2.34943e-20 -1.90995e-21 -1.72333e-07 0 0 0 1 0 2.99533 0 
3 1 3.40133e-21 -1.28528e-20 1.27929e-07 0 0 2 1 0 3.0464 0 
