ITEM: TIMESTEP
0
ITEM: NUMBER OF ATOMS
2
ITEM: BOX BOUNDS ff ff ff
-0.1 0.1
-0.1 0.1
-0.1 0.1
ITEM: ATOMS id type fx fy fz x y z radius mux muy muz 
1 1 2.54834e-14 -7.75955e-13 19.7552 0 0 0 1.4e-06 0 0 3.99127e-15 
2 1 -9.81346e+09 1.0742e+11 -2.08862e+25 0 0 3.08e-06 1.4e-06 0 0 4.17301e-15 
