ITEM: TIMESTEP
1
ITEM: NUMBER OF ATOMS
3
ITEM: BOX BOUNDS ff ff ff
-10 10
-10 10
-10 10
ITEM: ATOMS id type fx fy fz x y z radius mux muy muz 
3 1 1.488e-08 -3.82842e-09 14127.6 0 0 -2.4 1 0 2.45696e+06 0 
2 1 -2.80231e-08 -1.47056e-08 -94534.9 0 0 0 1 0 2.37977e+06 0 
1 1 -1.02194e-08 -5.95845e-09 80884.5 0 0 2 1 0 2.42563e+06 0 
