ITEM: TIMESTEP
2
ITEM: NUMBER OF ATOMS
3
ITEM: BOX BOUNDS ff ff ff
-10 10
-10 10
-10 10
ITEM: ATOMS id type fx fy fz x y z radius mux muy muz 
3 1 5.77545e-09 -8.96168e-09 66935.2 0 0 -2.9 1 0 2.47541e+06 0 
2 1 4.67601e-09 -1.80639e-08 -148037 0 0 0 1 0 2.39884e+06 0 
1 1 4.52713e-09 -6.29838e-09 81676.6 0 0 2 1 0 2.42504e+06 0 
