ITEM: TIMESTEP
73
ITEM: NUMBER OF ATOMS
2
ITEM: BOX BOUNDS ff ff ff
-0.1 0.1
-0.1 0.1
-0.1 0.1
ITEM: ATOMS id type fx fy fz x y z radius mux muy muz 
1 1 0 0 -5.31057e-14 0 0 0 1.4e-06 3.99127e-15 0 0 
2 1 0 0 5.31057e-14 0 0 3.08e-06 1.4e-06 3.99127e-15 0 0 
