ITEM: TIMESTEP
1
ITEM: NUMBER OF ATOMS
3
ITEM: BOX BOUNDS ff ff ff
-10 10
-10 10
-10 10
ITEM: ATOMS id type fx fy fz x y z radius mux muy muz 
3 1 1.60107e-08 2.90706e-09 40841.5 0 0 -2.6 1 0 2.46602e+06 0 
2 1 2.56067e-08 1.11038e-08 -121558 0 0 0 1 0 2.38913e+06 0 
1 1 1.83715e-08 -9.61582e-10 81273.4 0 0 2 1 0 2.42534e+06 0 
