ITEM: TIMESTEP
1
ITEM: NUMBER OF ATOMS
3
ITEM: BOX BOUNDS ff ff ff
-10 10
-10 10
-10 10
ITEM: ATOMS id type fx fy fz x y z radius mux muy muz 
1 1 1.7256e-20 7.83672e-21 4.5336e-08 0 0 -2.5 1 0 3.09056 0 
2 1 -1.26821e-20 1.22731e-20 -1.72378e-07 0 0 0 1 0 2.99544 0 
3 1 1.30504e-21 -3.59443e-22 1.27935e-07 0 0 2 1 0 3.04639 0 
