ITEM: TIMESTEP
0
ITEM: NUMBER OF ATOMS
3
ITEM: BOX BOUNDS ff ff ff
-10 10
-10 10
-10 10
ITEM: ATOMS id type fx fy fz x y z radius mux muy muz 
3 1 -3.04414e-10 -2.33539e-09 93067.3 0 0 -3.5 1 0 2.48596e+06 0 
2 1 9.1406e-09 -6.3221e-09 -174716 0 0 0 1 0 2.40973e+06 0 
1 1 5.85563e-09 -3.55632e-09 82128.5 0 0 2 1 0 2.4247e+06 0 
