ITEM: TIMESTEP
2
ITEM: NUMBER OF ATOMS
3
ITEM: BOX BOUNDS ff ff ff
-10 10
-10 10
-10 10
ITEM: ATOMS id type fx fy fz x y z radius mux muy muz 
3 1 -2.65582e-09 -1.91045e-09 14127.6 0 0 -2.4 1 0 2.45696e+06 0 
2 1 3.21886e-08 -4.76168e-09 -94534.9 0 0 0 1 0 2.37977e+06 0 
1 1 1.00468e-08 7.58185e-09 80884.5 0 0 2 1 0 2.42563e+06 0 
