ITEM: TIMESTEP
1
ITEM: NUMBER OF ATOMS
3
ITEM: BOX BOUNDS ff ff ff
-10 10
-10 10
-10 10
ITEM: ATOMS id type fx fy fz x y z radius mux muy muz 
3 1 7.07361e-09 -1.15436e-09 93067.4 0 0 -3.5 1 0 2.48595e+06 0 
2 1 3.35659e-08 1.28217e-08 -174716 0 0 0 1 0 2.40973e+06 0 
1 1 -1.07781e-08 2.87185e-09 82128.6 0 0 2 1 0 2.4247e+06 0 
