ITEM: TIMESTEP
0
ITEM: NUMBER OF ATOMS
3
ITEM: BOX BOUNDS ff ff ff
-10 10
-10 10
-10 10
ITEM: ATOMS id type fx fy fz x y z radius mux muy muz 
1 1 8.94013e-21 2.71893e-20 3.96391e-08 0 0 -2.5 1 0 3.14 0 
2 1 -2.56131e-20 -1.56326e-20 -1.79602e-07 0 0 0 1 0 3.08976 0 
3 1 1.79131e-21 -1.4855e-20 1.32849e-07 0 0 2 1 0 3.04344 0 
