ITEM: TIMESTEP
0
ITEM: NUMBER OF ATOMS
3
ITEM: BOX BOUNDS ff ff ff
-10 10
-10 10
-10 10
ITEM: ATOMS id type fx fy fz x y z radius mux muy muz 
3 1 -5.61817e-09 4.27056e-09 14120.9 0 0 -2.4 1 0 2.45707e+06 0 
2 1 -1.05484e-08 -9.59388e-09 -94532.1 0 0 0 1 0 2.37976e+06 0 
1 1 1.43269e-08 -1.43159e-09 80884.2 0 0 2 1 0 2.42563e+06 0 
