ITEM: TIMESTEP
1
ITEM: NUMBER OF ATOMS
3
ITEM: BOX BOUNDS ff ff ff
-10 10
-10 10
-10 10
ITEM: ATOMS id type fx fy fz x y z radius mux muy muz 
3 1 4.98464e-09 8.07571e-09 -3309.91 0 0 -2.3 1 0 2.45122e+06 0 
2 1 -7.68218e-09 1.67024e-09 -76924.1 0 0 0 1 0 2.37383e+06 0 
1 1 2.5246e-08 8.49273e-10 80637.9 0 0 2 1 0 2.42582e+06 0 
