ITEM: TIMESTEP
4
ITEM: NUMBER OF ATOMS
2
ITEM: BOX BOUNDS ff ff ff
-0.1 0.1
-0.1 0.1
-0.1 0.1
ITEM: ATOMS id type fx fy fz x y z radius mux muy muz 
1 1 -8.15832e+11 -1.20604e+13 3.97962e+27 0 0 0 1.4e-06 3.99127e-15 0 0 
2 1 -8.15832e+11 -1.20604e+13 3.97962e+27 0 0 3.08e-06 1.4e-06 3.99127e-15 0 0 
