ITEM: TIMESTEP
1
ITEM: NUMBER OF ATOMS
3
ITEM: BOX BOUNDS ff ff ff
-10 10
-10 10
-10 10
ITEM: ATOMS id type fx fy fz x y z radius mux muy muz 
3 1 8.11825e-09 4.32605e-10 95599.1 0 0 -3.6 1 0 2.48708e+06 0 
2 1 -3.89508e-09 3.48649e-09 -177316 0 0 0 1 0 2.4109e+06 0 
1 1 -1.04453e-09 -2.5931e-11 82177.1 0 0 2 1 0 2.42466e+06 0 
