ITEM: TIMESTEP
2
ITEM: NUMBER OF ATOMS
2
ITEM: BOX BOUNDS ff ff ff
-10 10
-10 10
-10 10
ITEM: ATOMS id type fx fy fz x y z radius mux muy muz 
1 1 2.06903e-16 -1.6009e-15 -0.0142584 0 0 0 1 0 1087.21 0 
2 1 -2.06903e-16 -1.6009e-15 0.0142584 0 0 2.2 1 0 1087.21 0 
