ITEM: TIMESTEP
2
ITEM: NUMBER OF ATOMS
3
ITEM: BOX BOUNDS ff ff ff
-10 10
-10 10
-10 10
ITEM: ATOMS id type fx fy fz x y z radius mux muy muz 
3 1 1.01482e-08 1.22664e-08 99745.6 0 0 -3.8 1 0 2.48901e+06 0 
2 1 -8.56562e-09 7.29905e-09 -181584 0 0 0 1 0 2.41289e+06 0 
1 1 -7.69716e-09 -3.04621e-09 82259.6 0 0 2 1 0 2.4246e+06 0 
