ITEM: TIMESTEP
2
ITEM: NUMBER OF ATOMS
3
ITEM: BOX BOUNDS ff ff ff
-10 10
-10 10
-10 10
ITEM: ATOMS id type fx fy fz x y z radius mux muy muz 
1 1 -1.36732e-21 1.14386e-21 -1.58975e-07 0 0 -2 1 0 3.04743 0 
2 1 4.61509e-20 -9.63966e-21 4.8019e-08 0 0 0 1 0 2.96216 0 
3 1 1.64142e-20 -5.59929e-21 1.10693e-07 0 0 2.1 1 0 3.06004 0 
