ITEM: TIMESTEP
0
ITEM: NUMBER OF ATOMS
3
ITEM: BOX BOUNDS ff ff ff
-10 10
-10 10
-10 10
ITEM: ATOMS id type fx fy fz x y z radius mux muy muz 
1 1 2.05246e-21 1.6078e-20 -1.78482e-07 0 0 -2 1 0 3.14 0 
2 1 2.7191e-20 5.47931e-21 5.54581e-08 0 0 0 1 0 3.04187 0 
3 1 1.94133e-20 -1.07383e-21 1.14168e-07 0 0 2.1 1 0 3.05788 0 
