ITEM: TIMESTEP
5
ITEM: NUMBER OF ATOMS
2
ITEM: BOX BOUNDS ff ff ff
-0.1 0.1
-0.1 0.1
-0.1 0.1
ITEM: ATOMS id type fx fy fz x y z radius mux muy muz 
1 1 1.45599e+10 3.52122e+10 -2.29266e+25 0 0 0 1.4e-06 0 0 4.18168e-15 
2 1 1.2435e+10 9.3318e+07 -2.29266e+25 0 0 3.08e-06 1.4e-06 0 0 4.18168e-15 
