ITEM: TIMESTEP
1
ITEM: NUMBER OF ATOMS
3
ITEM: BOX BOUNDS ff ff ff
-10 10
-10 10
-10 10
ITEM: ATOMS id type fx fy fz x y z radius mux muy muz 
3 1 3.16299e-09 7.11722e-09 101447 0 0 -3.9 1 0 2.48983e+06 0 
2 1 1.4334e-08 2.31831e-09 -183340 0 0 0 1 0 2.41374e+06 0 
1 1 6.29044e-09 9.62948e-09 82294.8 0 0 2 1 0 2.42457e+06 0 
