ITEM: TIMESTEP
2
ITEM: NUMBER OF ATOMS
3
ITEM: BOX BOUNDS ff ff ff
-10 10
-10 10
-10 10
ITEM: ATOMS id type fx fy fz x y z radius mux muy muz 
3 1 -1.81545e-08 -1.99299e-09 101447 0 0 -3.9 1 0 2.48983e+06 0 
2 1 -6.63559e-09 -5.49229e-09 -183340 0 0 0 1 0 2.41374e+06 0 
1 1 -1.7822e-08 4.98711e-09 82294.8 0 0 2 1 0 2.42457e+06 0 
