ITEM: TIMESTEP
68
ITEM: NUMBER OF ATOMS
2
ITEM: BOX BOUNDS ff ff ff
-0.1 0.1
-0.1 0.1
-0.1 0.1
ITEM: ATOMS id type fx fy fz x y z radius mux muy muz 
1 1 0 0 1.16587e-13 0 0 0 1.4e-06 0 0 4.18168e-15 
2 1 0 0 -1.16587e-13 0 0 3.08e-06 1.4e-06 0 0 4.18168e-15 
