ITEM: TIMESTEP
0
ITEM: NUMBER OF ATOMS
3
ITEM: BOX BOUNDS ff ff ff
-10 10
-10 10
-10 10
ITEM: ATOMS id type fx fy fz x y z radius mux muy muz 
3 1 -6.14924e-09 7.59629e-09 90157.4 0 0 -3.4 1 0 2.48469e+06 0 
2 1 -7.56147e-09 7.12596e-09 -171732 0 0 0 1 0 2.40842e+06 0 
1 1 -1.44427e-08 7.01533e-09 82074.1 0 0 2 1 0 2.42474e+06 0 
