ITEM: TIMESTEP
0
ITEM: NUMBER OF ATOMS
3
ITEM: BOX BOUNDS ff ff ff
-10 10
-10 10
-10 10
ITEM: ATOMS id type fx fy fz x y z radius mux muy muz 
3 1 -5.58383e-09 1.67053e-09 -3320.53 0 0 -2.3 1 0 2.45137e+06 0 
2 1 1.74199e-08 1.04762e-08 -76919.9 0 0 0 1 0 2.37382e+06 0 
1 1 -1.24172e-08 1.57746e-09 80637.4 0 0 2 1 0 2.42582e+06 0 
