ITEM: TIMESTEP
1
ITEM: NUMBER OF ATOMS
2
ITEM: BOX BOUNDS ff ff ff
-0.1 0.1
-0.1 0.1
-0.1 0.1
ITEM: ATOMS id type fx fy fz x y z radius mux muy muz 
1 1 5.28512e+12 -1.57009e+13 3.97961e+27 0 0 0 1.4e-06 0 3.99127e-15 0 
2 1 5.28512e+12 -1.57009e+13 3.97961e+27 0 0 3.08e-06 1.4e-06 0 3.99127e-15 0 
