ITEM: TIMESTEP
2
ITEM: NUMBER OF ATOMS
3
ITEM: BOX BOUNDS ff ff ff
-10 10
-10 10
-10 10
ITEM: ATOMS id type fx fy fz x y z radius mux muy muz 
3 1 5.40111e-09 -1.28483e-08 51053.2 0 0 -2.7 1 0 2.46961e+06 0 
2 1 9.61717e-09 9.93867e-09 -131908 0 0 0 1 0 2.39284e+06 0 
1 1 1.63575e-09 -2.43774e-09 81427.6 0 0 2 1 0 2.42522e+06 0 
