ITEM: TIMESTEP
1
ITEM: NUMBER OF ATOMS
3
ITEM: BOX BOUNDS ff ff ff
-10 10
-10 10
-10 10
ITEM: ATOMS id type fx fy fz x y z radius mux muy muz 
3 1 1.77358e-09 -1.988e-09 78394 0 0 -3.1 1 0 2.47983e+06 0 
2 1 -8.59674e-09 -5.13659e-09 -159708 0 0 0 1 0 2.40341e+06 0 
1 1 -2.51943e-08 -9.32024e-09 81866.2 0 0 2 1 0 2.42489e+06 0 
