ITEM: TIMESTEP
0
ITEM: NUMBER OF ATOMS
3
ITEM: BOX BOUNDS ff ff ff
-10 10
-10 10
-10 10
ITEM: ATOMS id type fx fy fz x y z radius mux muy muz 
3 1 1.27968e-08 7.32917e-09 59655.5 0 0 -2.8 1 0 2.47275e+06 0 
2 1 1.84081e-08 -1.09766e-09 -140639 0 0 0 1 0 2.39605e+06 0 
1 1 9.70971e-09 -3.36738e-09 81560.7 0 0 2 1 0 2.42512e+06 0 
