ITEM: TIMESTEP
2
ITEM: NUMBER OF ATOMS
3
ITEM: BOX BOUNDS ff ff ff
-10 10
-10 10
-10 10
ITEM: ATOMS id type fx fy fz x y z radius mux muy muz 
3 1 4.8756e-09 -7.88551e-09 73118.7 0 0 -3 1 0 2.47777e+06 0 
2 1 -1.62778e-08 3.42712e-09 -154331 0 0 0 1 0 2.40128e+06 0 
1 1 -2.52046e-08 5.20548e-09 81777.7 0 0 2 1 0 2.42496e+06 0 
