ITEM: TIMESTEP
1
ITEM: NUMBER OF ATOMS
3
ITEM: BOX BOUNDS ff ff ff
-10 10
-10 10
-10 10
ITEM: ATOMS id type fx fy fz x y z radius mux muy muz 
3 1 -1.34062e-08 1.34829e-09 86800.6 0 0 -3.3 1 0 2.48326e+06 0 
2 1 -1.61613e-08 -1.12982e-10 -168295 0 0 0 1 0 2.40695e+06 0 
1 1 1.16491e-08 -1.07917e-08 82013.1 0 0 2 1 0 2.42478e+06 0 
