ITEM: TIMESTEP
1
ITEM: NUMBER OF ATOMS
3
ITEM: BOX BOUNDS ff ff ff
-10 10
-10 10
-10 10
ITEM: ATOMS id type fx fy fz x y z radius mux muy muz 
1 1 -2.47557e-09 -2.98347e-09 25151 0 0 -2 1 0 2.41715e+06 0 
2 1 0 2.18674e-08 7.40954e-07 0 0 0 1 0 2.34893e+06 0 
3 1 -5.26617e-11 -6.2344e-09 -25151 0 0 2 1 0 2.41715e+06 0 
