ITEM: TIMESTEP
0
ITEM: NUMBER OF ATOMS
3
ITEM: BOX BOUNDS ff ff ff
-10 10
-10 10
-10 10
ITEM: ATOMS id type fx fy fz x y z radius mux muy muz 
3 1 -4.12183e-09 2.29208e-09 40838.7 0 0 -2.6 1 0 2.46608e+06 0 
2 1 -5.22335e-09 1.00433e-08 -121556 0 0 0 1 0 2.38913e+06 0 
1 1 3.06121e-09 -1.92262e-09 81273.2 0 0 2 1 0 2.42534e+06 0 
