ITEM: TIMESTEP
2
ITEM: NUMBER OF ATOMS
3
ITEM: BOX BOUNDS ff ff ff
-10 10
-10 10
-10 10
ITEM: ATOMS id type fx fy fz x y z radius mux muy muz 
3 1 -2.64826e-08 -2.25639e-09 93067.4 0 0 -3.5 1 0 2.48595e+06 0 
2 1 5.81761e-09 7.20436e-09 -174716 0 0 0 1 0 2.40973e+06 0 
1 1 -8.56468e-09 -1.51233e-09 82128.6 0 0 2 1 0 2.4247e+06 0 
