ITEM: TIMESTEP
2
ITEM: NUMBER OF ATOMS
3
ITEM: BOX BOUNDS ff ff ff
-10 10
-10 10
-10 10
ITEM: ATOMS id type fx fy fz x y z radius mux muy muz 
3 1 6.21482e-09 2.85124e-09 97809.3 0 0 -3.7 1 0 2.4881e+06 0 
2 1 4.32172e-10 3.14306e-09 -179590 0 0 0 1 0 2.41195e+06 0 
1 1 4.58929e-09 -8.8939e-10 82220.6 0 0 2 1 0 2.42463e+06 0 
