ITEM: TIMESTEP
2
ITEM: NUMBER OF ATOMS
2
ITEM: BOX BOUNDS ff ff ff
-0.1 0.1
-0.1 0.1
-0.1 0.1
ITEM: ATOMS id type fx fy fz x y z radius mux muy muz 
1 1 -2.31433e+09 1.87804e+10 1.97199e+24 0 0 0 1.4e-06 0 3.90243e-15 0 
2 1 2.44401e+09 7.18857e+09 1.97199e+24 0 0 3.08e-06 1.4e-06 0 3.90243e-15 0 
