ITEM: TIMESTEP
2
ITEM: NUMBER OF ATOMS
3
ITEM: BOX BOUNDS ff ff ff
-10 10
-10 10
-10 10
ITEM: ATOMS id type fx fy fz x y z radius mux muy muz 
3 1 2.02584e-08 -6.38458e-09 59656.7 0 0 -2.8 1 0 2.47271e+06 0 
2 1 1.53208e-09 -2.03974e-09 -140640 0 0 0 1 0 2.39605e+06 0 
1 1 -2.03552e-08 -1.68637e-09 81560.8 0 0 2 1 0 2.42512e+06 0 
