ITEM: TIMESTEP
0
ITEM: NUMBER OF ATOMS
3
ITEM: BOX BOUNDS ff ff ff
-10 10
-10 10
-10 10
ITEM: ATOMS id type fx fy fz x y z radius mux muy muz 
3 1 -1.07678e-08 -6.09611e-09 73118.1 0 0 -3 1 0 2.47779e+06 0 
2 1 1.12154e-08 -9.21189e-09 -154330 0 0 0 1 0 2.40128e+06 0 
1 1 1.10958e-08 1.38321e-08 81777.5 0 0 2 1 0 2.42496e+06 0 
