ITEM: TIMESTEP
2
ITEM: NUMBER OF ATOMS
3
ITEM: BOX BOUNDS ff ff ff
-10 10
-10 10
-10 10
ITEM: ATOMS id type fx fy fz x y z radius mux muy muz 
3 1 -1.76446e-08 1.23061e-08 -24246.1 0 0 -2.2 1 0 2.44443e+06 0 
2 1 1.84042e-08 -2.17593e-09 -55798.2 0 0 0 1 0 2.36679e+06 0 
1 1 1.0258e-08 -1.14016e-08 80345.7 0 0 2 1 0 2.42604e+06 0 
