ITEM: TIMESTEP
2
ITEM: NUMBER OF ATOMS
3
ITEM: BOX BOUNDS ff ff ff
-10 10
-10 10
-10 10
ITEM: ATOMS id type fx fy fz x y z radius mux muy muz 
3 1 -5.07833e-09 -6.14061e-09 90157.5 0 0 -3.4 1 0 2.48468e+06 0 
2 1 3.85996e-09 -1.38039e-08 -171733 0 0 0 1 0 2.40842e+06 0 
1 1 5.94064e-09 -3.22752e-09 82074.2 0 0 2 1 0 2.42474e+06 0 
