ITEM: TIMESTEP
1
ITEM: NUMBER OF ATOMS
3
ITEM: BOX BOUNDS ff ff ff
-10 10
-10 10
-10 10
ITEM: ATOMS id type fx fy fz x y z radius mux muy muz 
3 1 -2.55025e-08 1.35275e-09 82913.3 0 0 -3.2 1 0 2.48165e+06 0 
2 1 3.86079e-09 1.76701e-08 -164321 0 0 0 1 0 2.40529e+06 0 
1 1 3.40791e-09 3.82719e-10 81944.2 0 0 2 1 0 2.42483e+06 0 
