ITEM: TIMESTEP
1
ITEM: NUMBER OF ATOMS
3
ITEM: BOX BOUNDS ff ff ff
-10 10
-10 10
-10 10
ITEM: ATOMS id type fx fy fz x y z radius mux muy muz 
1 1 -3.10386e-22 -4.48547e-21 -1.58589e-07 0 0 -2 1 0 3.04494 0 
2 1 2.71238e-20 2.48907e-20 4.78845e-08 0 0 0 1 0 2.9623 0 
3 1 1.37783e-20 -1.95251e-21 1.10699e-07 0 0 2.1 1 0 3.06003 0 
