ITEM: TIMESTEP
1
ITEM: NUMBER OF ATOMS
3
ITEM: BOX BOUNDS ff ff ff
-10 10
-10 10
-10 10
ITEM: ATOMS id type fx fy fz x y z radius mux muy muz 
3 1 -1.63787e-08 -5.75688e-09 99745.6 0 0 -3.8 1 0 2.48901e+06 0 
2 1 3.10361e-08 -2.96713e-08 -181584 0 0 0 1 0 2.41289e+06 0 
1 1 8.85031e-09 1.31162e-08 82259.6 0 0 2 1 0 2.4246e+06 0 
