ITEM: TIMESTEP
8
ITEM: NUMBER OF ATOMS
2
ITEM: BOX BOUNDS ff ff ff
-0.1 0.1
-0.1 0.1
-0.1 0.1
ITEM: ATOMS id type fx fy fz x y z radius mux muy muz 
1 1 1.70081e+10 -1.8621e+10 -2.29266e+25 0 0 0 1.4e-06 0 0 4.18168e-15 
2 1 9.65135e+09 -1.31389e+10 -2.29266e+25 0 0 3.08e-06 1.4e-06 0 0 4.18168e-15 
