ITEM: TIMESTEP
4
ITEM: NUMBER OF ATOMS
2
ITEM: BOX BOUNDS ff ff ff
-0.1 0.1
-0.1 0.1
-0.1 0.1
ITEM: ATOMS id type fx fy fz x y z radius mux muy muz 
1 1 3.19634e+10 -1.74283e+11 -2.29266e+25 0 0 0 1.4e-06 0 0 4.18168e-15 
2 1 -1.19239e+10 -3.60529e+10 -2.29266e+25 0 0 3.08e-06 1.4e-06 0 0 4.18168e-15 
