ITEM: TIMESTEP
1
ITEM: NUMBER OF ATOMS
3
ITEM: BOX BOUNDS ff ff ff
-10 10
-10 10
-10 10
ITEM: ATOMS id type fx fy fz x y z radius mux muy muz 
3 1 -1.0057e-08 3.70362e-09 97809.3 0 0 -3.7 1 0 2.4881e+06 0 
2 1 -1.33402e-08 -2.18573e-09 -179590 0 0 0 1 0 2.41195e+06 0 
1 1 -1.96731e-08 -1.01038e-08 82220.6 0 0 2 1 0 2.42463e+06 0 
