ITEM: TIMESTEP
1
ITEM: NUMBER OF ATOMS
3
ITEM: BOX BOUNDS ff ff ff
-10 10
-10 10
-10 10
ITEM: ATOMS id type fx fy fz x y z radius mux muy muz 
3 1 1.30872e-08 6.11909e-09 66935.2 0 0 -2.9 1 0 2.47541e+06 0 
2 1 -2.69463e-08 -5.83713e-09 -148037 0 0 0 1 0 2.39884e+06 0 
1 1 -1.20489e-08 -3.49004e-09 81676.6 0 0 2 1 0 2.42504e+06 0 
