ITEM: TIMESTEP
2
ITEM: NUMBER OF ATOMS
3
ITEM: BOX BOUNDS ff ff ff
-10 10
-10 10
-10 10
ITEM: ATOMS id type fx fy fz x y z radius mux muy muz 
3 1 -4.69587e-09 -4.17689e-09 40841.5 0 0 -2.6 1 0 2.46602e+06 0 
2 1 -2.2461e-09 1.46921e-08 -121558 0 0 0 1 0 2.38913e+06 0 
1 1 1.71583e-08 -3.13604e-09 81273.4 0 0 2 1 0 2.42534e+06 0 
