ITEM: TIMESTEP
0
ITEM: NUMBER OF ATOMS
3
ITEM: BOX BOUNDS ff ff ff
-10 10
-10 10
-10 10
ITEM: ATOMS id type fx fy fz x y z radius mux muy muz 
3 1 9.73798e-09 -4.29178e-09 28669.9 0 0 -2.5 1 0 2.46192e+06 0 
2 1 2.22275e-08 -8.04588e-09 -109240 0 0 0 1 0 2.38481e+06 0 
1 1 1.39217e-08 -1.34535e-10 81093.9 0 0 2 1 0 2.42547e+06 0 
