ITEM: TIMESTEP
0
ITEM: NUMBER OF ATOMS
3
ITEM: BOX BOUNDS ff ff ff
-10 10
-10 10
-10 10
ITEM: ATOMS id type fx fy fz x y z radius mux muy muz 
3 1 8.16932e-09 -1.18545e-08 51051.3 0 0 -2.7 1 0 2.46965e+06 0 
2 1 -1.95165e-08 1.63797e-08 -131907 0 0 0 1 0 2.39284e+06 0 
1 1 1.88805e-08 4.66498e-09 81427.4 0 0 2 1 0 2.42522e+06 0 
