ITEM: TIMESTEP
0
ITEM: NUMBER OF ATOMS
3
ITEM: BOX BOUNDS ff ff ff
-10 10
-10 10
-10 10
ITEM: ATOMS id type fx fy fz x y z radius mux muy muz 
3 1 -5.30255e-09 -3.31846e-09 -49429 0 0 -2.1 1 0 2.43659e+06 0 
2 1 1.01736e-08 -4.76672e-09 -30435.4 0 0 0 1 0 2.35869e+06 0 
1 1 -1.04706e-08 9.05145e-09 80008.9 0 0 2 1 0 2.42629e+06 0 
