ITEM: TIMESTEP
0
ITEM: NUMBER OF ATOMS
3
ITEM: BOX BOUNDS ff ff ff
-10 10
-10 10
-10 10
ITEM: ATOMS id type fx fy fz x y z radius mux muy muz 
3 1 6.16749e-09 -1.4128e-09 82913 0 0 -3.2 1 0 2.48166e+06 0 
2 1 1.34676e-08 -1.5072e-08 -164321 0 0 0 1 0 2.40529e+06 0 
1 1 -1.49428e-08 1.69429e-08 81944.1 0 0 2 1 0 2.42483e+06 0 
