ITEM: TIMESTEP
1
ITEM: NUMBER OF ATOMS
2
ITEM: BOX BOUNDS ff ff ff
-0.1 0.1
-0.1 0.1
-0.1 0.1
ITEM: ATOMS id type fx fy fz x y z radius mux muy muz 
1 1 -3.80108e+09 -1.63412e+11 -2.28316e+25 0 0 0 1.4e-06 0 0 4.18129e-15 
2 1 -1.61639e+10 -1.13422e+11 -2.29222e+25 0 0 3.08e-06 1.4e-06 0 0 4.18166e-15 
