ITEM: TIMESTEP
0
ITEM: NUMBER OF ATOMS
3
ITEM: BOX BOUNDS ff ff ff
-10 10
-10 10
-10 10
ITEM: ATOMS id type fx fy fz x y z radius mux muy muz 
3 1 2.00494e-08 3.23514e-09 95599 0 0 -3.6 1 0 2.48709e+06 0 
2 1 -2.64578e-09 1.0518e-08 -177316 0 0 0 1 0 2.4109e+06 0 
1 1 -1.21659e-08 6.30459e-10 82177 0 0 2 1 0 2.42466e+06 0 
