ITEM: TIMESTEP
1
ITEM: NUMBER OF ATOMS
3
ITEM: BOX BOUNDS ff ff ff
-10 10
-10 10
-10 10
ITEM: ATOMS id type fx fy fz x y z radius mux muy muz 
3 1 4.3972e-09 -1.11951e-08 -24246.1 0 0 -2.2 1 0 2.44443e+06 0 
2 1 5.88766e-09 4.66675e-09 -55798.2 0 0 0 1 0 2.36679e+06 0 
1 1 -1.57766e-09 -8.39821e-09 80345.7 0 0 2 1 0 2.42604e+06 0 
