ITEM: TIMESTEP
2
ITEM: NUMBER OF ATOMS
3
ITEM: BOX BOUNDS ff ff ff
-10 10
-10 10
-10 10
ITEM: ATOMS id type fx fy fz x y z radius mux muy muz 
3 1 1.05801e-08 -6.91641e-09 86800.6 0 0 -3.3 1 0 2.48326e+06 0 
2 1 2.78742e-08 -5.0698e-09 -168295 0 0 0 1 0 2.40695e+06 0 
1 1 1.0966e-08 3.2477e-10 82013.1 0 0 2 1 0 2.42478e+06 0 
