ITEM: TIMESTEP
2
ITEM: NUMBER OF ATOMS
2
ITEM: BOX BOUNDS ff ff ff
-0.1 0.1
-0.1 0.1
-0.1 0.1
ITEM: ATOMS id type fx fy fz x y z radius mux muy muz 
1 1 -1.37809e+10 1.80215e+11 -2.29264e+25 0 0 0 1.4e-06 0 0 4.18168e-15 
2 1 1.17303e+10 5.02139e+10 -2.29265e+25 0 0 3.08e-06 1.4e-06 0 0 4.18168e-15 
