ITEM: TIMESTEP
0
ITEM: NUMBER OF ATOMS
3
ITEM: BOX BOUNDS ff ff ff
-10 10
-10 10
-10 10
ITEM: ATOMS id type fx fy fz x y z radius mux muy muz 
3 1 1.03406e-08 -1.18723e-08 102947 0 0 -4 1 0 2.49057e+06 0 
2 1 -2.1405e-08 9.19695e-09 -184890 0 0 0 1 0 2.4145e+06 0 
1 1 -1.31154e-08 7.23792e-09 82326.5 0 0 2 1 0 2.42455e+06 0 
