ITEM: TIMESTEP
0
ITEM: NUMBER OF ATOMS
1
ITEM: BOX BOUNDS ff ff ff
-10 10
-10 10
-10 10
ITEM: ATOMS id type fx fy fz x y z radius mux muy muz 
3 1 9.6332e-21 9.0961e-21 -1.73592e-08 0 0 -3.6 1 0 3.12537 0 
