ITEM: TIMESTEP
1
ITEM: NUMBER OF ATOMS
2
ITEM: BOX BOUNDS ff ff ff
-10 10
-10 10
-10 10
ITEM: ATOMS id type fx fy fz x y z radius mux muy muz 
2 1 0 0 2.17615e-07 0 0 -3.5 1 0 0 7.37743 
1 1 0 0 -2.17615e-07 0 0 0 1 0 0 7.37743 
