ITEM: TIMESTEP
1
ITEM: NUMBER OF ATOMS
2
ITEM: BOX BOUNDS ff ff ff
-10 10
-10 10
-10 10
ITEM: ATOMS id type fx fy fz x y z radius mux muy muz 
2 1 0 0 1.72787e-07 0 0 -3.7 1 0 0 7.34654 
1 1 0 0 -1.72787e-07 0 0 0 1 0 0 7.34654 
