ITEM: TIMESTEP
2
ITEM: NUMBER OF ATOMS
1
ITEM: BOX BOUNDS ff ff ff
-10 10
-10 10
-10 10
ITEM: ATOMS id type fx fy fz x y z radius mux muy muz 
3 1 0 4.75291e-08 -3.10904e-17 0 3.1 1 1 3.09783 0 0 
