ITEM: TIMESTEP
0
ITEM: NUMBER OF ATOMS
2
ITEM: BOX BOUNDS ff ff ff
-10 10
-10 10
-10 10
ITEM: ATOMS id type fx fy fz x y z radius mux muy muz 
2 1 2.46233e-08 -3.11989 -4.90614e-08 0 0 -3.3 1 0 3.1199 0 
1 1 -2.46233e-08 -3.1199 4.90614e-08 0 0 0 1 0 3.11989 0 
