ITEM: TIMESTEP
1
ITEM: NUMBER OF ATOMS
2
ITEM: BOX BOUNDS ff ff ff
-10 10
-10 10
-10 10
ITEM: ATOMS id type fx fy fz x y z radius mux muy muz 
2 1 5.43254e-08 -3.10219 -1.07396e-07 0 0 -2.7 1 0 3.10219 0 
1 1 -5.43254e-08 -3.10219 1.07396e-07 0 0 0 1 0 3.10219 0 
