ITEM: TIMESTEP
0
ITEM: NUMBER OF ATOMS
2
ITEM: BOX BOUNDS ff ff ff
-10 10
-10 10
-10 10
ITEM: ATOMS id type fx fy fz x y z radius mux muy muz 
2 1 4.10181e-08 -3.10972 -8.14042e-08 0 0 -2.9 1 0 3.10975 0 
1 1 -4.10181e-08 -3.10975 8.14042e-08 0 0 0 1 0 3.10972 0 
