ITEM: TIMESTEP
1
ITEM: NUMBER OF ATOMS
3
ITEM: BOX BOUNDS ff ff ff
-10 10
-10 10
-10 10
ITEM: ATOMS id type fx fy fz x y z radius mux muy muz 
1 1 1.5911e-21 -6.03317e-09 5.10366e-07 0 0 0 1 0 0.0162891 3.33596 
3 1 9.76929e-22 1.19548e-08 3.81905e-10 0 3.3 1 1 0 8.45668e-07 3.11133 
2 1 9.21276e-21 -5.91906e-09 -5.09368e-07 0 0 2 1 0 -0.0163058 3.3359 
