ITEM: TIMESTEP
0
ITEM: NUMBER OF ATOMS
3
ITEM: BOX BOUNDS ff ff ff
-10 10
-10 10
-10 10
ITEM: ATOMS id type fx fy fz x y z radius mux muy muz 
1 1 1.59642e-20 1.03492e-07 2.15369e-07 0 0 0 1 0 0 3.14159 
3 1 -1.91418e-21 -1.88292e-07 -1.09651e-08 0 2 1 1 0 0.0842978 3.11349 
2 1 2.08721e-20 8.48104e-08 -2.02919e-07 0 0 2 1 0 -0.0809049 3.30783 
