ITEM: TIMESTEP
1
ITEM: NUMBER OF ATOMS
3
ITEM: BOX BOUNDS ff ff ff
-10 10
-10 10
-10 10
ITEM: ATOMS id type fx fy fz x y z radius mux muy muz 
1 1 3.85904e-20 3.2429e-08 3.70471e-07 0 0 0 1 0 0.0553287 3.32382 
3 1 2.96505e-20 -6.49785e-08 4.08082e-10 0 2.3 1 1 0 1.12437e-05 3.08837 
2 1 -1.86081e-20 3.25544e-08 -3.69461e-07 0 0 2 1 0 -0.0554186 3.32373 
