ITEM: TIMESTEP
3
ITEM: NUMBER OF ATOMS
3
ITEM: BOX BOUNDS ff ff ff
-10 10
-10 10
-10 10
ITEM: ATOMS id type fx fy fz x y z radius mux muy muz 
1 1 9.28372e-21 7.12061e-09 4.37977e-07 0 0 0 1 0 0.0371418 3.32761 
3 1 -4.75719e-21 -1.43686e-08 3.88654e-10 0 2.6 1 1 0 -2.65306e-10 3.09524 
2 1 -2.83342e-21 7.25203e-09 -4.36976e-07 0 0 2 1 0 -0.0371418 3.32761 
