ITEM: TIMESTEP
0
ITEM: NUMBER OF ATOMS
3
ITEM: BOX BOUNDS ff ff ff
-10 10
-10 10
-10 10
ITEM: ATOMS id type fx fy fz x y z radius mux muy muz 
1 1 -1.42329e-21 2.14001e-08 4.0341e-07 0 0 0 1 0 0.00173196 3.34933 
3 1 -1.99044e-20 -3.98626e-08 7.62484e-10 0 2.4 1 1 0 -0.00080063 3.08966 
2 1 1.44939e-20 1.84655e-08 -4.02763e-07 0 0 2 1 0 -0.0468795 3.32649 
