ITEM: TIMESTEP
1
ITEM: NUMBER OF ATOMS
3
ITEM: BOX BOUNDS ff ff ff
-10 10
-10 10
-10 10
ITEM: ATOMS id type fx fy fz x y z radius mux muy muz 
1 1 2.2525e-20 -2.41978e-09 4.78822e-07 0 0 0 1 0 0.0256156 3.33158 
3 1 -1.85318e-20 4.71992e-09 3.83804e-10 0 2.9 1 1 0 2.21792e-06 3.10268 
2 1 4.16144e-21 -2.29684e-09 -4.77825e-07 0 0 2 1 0 -0.0256445 3.33151 
