ITEM: TIMESTEP
2
ITEM: NUMBER OF ATOMS
3
ITEM: BOX BOUNDS ff ff ff
-10 10
-10 10
-10 10
ITEM: ATOMS id type fx fy fz x y z radius mux muy muz 
1 1 -1.85807e-20 -2.42044e-09 4.78802e-07 0 0 0 1 0 0.0256455 3.33151 
3 1 6.37001e-21 4.71875e-09 3.82909e-10 0 2.9 1 1 0 -1.8917e-08 3.10269 
2 1 1.44471e-20 -2.29502e-09 -4.77805e-07 0 0 2 1 0 -0.0256456 3.33151 
