ITEM: TIMESTEP
0
ITEM: NUMBER OF ATOMS
3
ITEM: BOX BOUNDS ff ff ff
-10 10
-10 10
-10 10
ITEM: ATOMS id type fx fy fz x y z radius mux muy muz 
1 1 -1.3143e-20 -5.50313e-09 5.33939e-07 0 0 0 1 0 0.000337468 3.3503 
3 1 -2.54829e-20 1.19377e-08 3.87232e-10 0 3.8 1 1 0 -4.43204e-05 3.11942 
2 1 1.87667e-20 -6.43287e-09 -5.32941e-07 0 0 2 1 0 -0.00950161 3.34063 
