ITEM: TIMESTEP
0
ITEM: NUMBER OF ATOMS
3
ITEM: BOX BOUNDS ff ff ff
-10 10
-10 10
-10 10
ITEM: ATOMS id type fx fy fz x y z radius mux muy muz 
1 1 6.71024e-22 -4.26223e-09 5.01478e-07 0 0 0 1 0 0.000712667 3.34989 
3 1 -1.02033e-21 1.03221e-08 4.14406e-10 0 3.1 1 1 0 -0.000165488 3.10707 
2 1 3.98311e-21 -6.05746e-09 -5.00511e-07 0 0 2 1 0 -0.0197252 3.33484 
