ITEM: TIMESTEP
3
ITEM: NUMBER OF ATOMS
3
ITEM: BOX BOUNDS ff ff ff
-10 10
-10 10
-10 10
ITEM: ATOMS id type fx fy fz x y z radius mux muy muz 
1 1 4.6775e-20 3.24286e-08 3.70446e-07 0 0 0 1 0 0.0554226 3.32373 
3 1 5.19233e-21 -6.49845e-08 4.05132e-10 0 2.3 1 1 0 -5.01733e-10 3.08842 
2 1 1.34905e-20 3.25608e-08 -3.69433e-07 0 0 2 1 0 -0.0554226 3.32373 
