ITEM: TIMESTEP
0
ITEM: NUMBER OF ATOMS
3
ITEM: BOX BOUNDS ff ff ff
-10 10
-10 10
-10 10
ITEM: ATOMS id type fx fy fz x y z radius mux muy muz 
1 1 6.65843e-22 -5.39572e-09 5.14343e-07 0 0 0 1 0 0.000568335 3.35002 
3 1 1.03618e-20 1.22842e-08 3.99198e-10 0 3.3 1 1 0 -0.000110978 3.11121 
2 1 -1.32142e-20 -6.88636e-09 -5.1336e-07 0 0 2 1 0 -0.015815 3.33679 
