ITEM: TIMESTEP
3
ITEM: NUMBER OF ATOMS
3
ITEM: BOX BOUNDS ff ff ff
-10 10
-10 10
-10 10
ITEM: ATOMS id type fx fy fz x y z radius mux muy muz 
1 1 -1.04777e-20 -3.94002e-09 4.88584e-07 0 0 0 1 0 0.0228053 3.3327 
3 1 -5.50484e-21 7.76009e-09 3.82124e-10 0 3 1 1 0 -1.13946e-10 3.10503 
2 1 3.19586e-20 -3.81698e-09 -4.87587e-07 0 0 2 1 0 -0.0228053 3.3327 
