ITEM: TIMESTEP
1
ITEM: NUMBER OF ATOMS
3
ITEM: BOX BOUNDS ff ff ff
-10 10
-10 10
-10 10
ITEM: ATOMS id type fx fy fz x y z radius mux muy muz 
1 1 -1.82434e-20 2.83709e-09 4.53887e-07 0 0 0 1 0 0.032683 3.32903 
3 1 -1.47112e-21 -5.7968e-09 3.87341e-10 0 2.7 1 1 0 3.7222e-06 3.09774 
2 1 -1.58619e-20 2.96348e-09 -4.52889e-07 0 0 2 1 0 -0.0327231 3.32895 
