ITEM: TIMESTEP
2
ITEM: NUMBER OF ATOMS
3
ITEM: BOX BOUNDS ff ff ff
-10 10
-10 10
-10 10
ITEM: ATOMS id type fx fy fz x y z radius mux muy muz 
1 1 9.75356e-22 -1.20755e-20 5.58087e-07 0 0 0 1 0 2.6555e-22 3.35103 
3 1 0 0 0 0 4 1 1 0 0 3.14159 
2 1 -1.74022e-21 -5.40076e-21 -5.57494e-07 0 0 2 1 0 -8.29844e-24 3.35103 
