ITEM: TIMESTEP
2
ITEM: NUMBER OF ATOMS
3
ITEM: BOX BOUNDS ff ff ff
-10 10
-10 10
-10 10
ITEM: ATOMS id type fx fy fz x y z radius mux muy muz 
1 1 5.87535e-21 -6.2467e-09 5.24396e-07 0 0 0 1 0 0.0119292 3.33852 
3 1 -3.44623e-20 1.23871e-08 3.82222e-10 0 3.6 1 1 0 -6.73047e-09 3.11656 
2 1 6.18136e-21 -6.13826e-09 -5.23397e-07 0 0 2 1 0 -0.0119293 3.33852 
