ITEM: TIMESTEP
0
ITEM: NUMBER OF ATOMS
3
ITEM: BOX BOUNDS ff ff ff
-10 10
-10 10
-10 10
ITEM: ATOMS id type fx fy fz x y z radius mux muy muz 
1 1 -9.27496e-21 -1.67603e-09 4.83901e-07 0 0 0 1 0 0.00090391 3.34973 
3 1 -1.77319e-22 5.49916e-09 4.45194e-10 0 2.9 1 1 0 -0.000252006 3.10242 
2 1 -1.22183e-20 -3.82054e-09 -4.82962e-07 0 0 2 1 0 -0.0248739 3.33265 
