ITEM: TIMESTEP
0
ITEM: NUMBER OF ATOMS
3
ITEM: BOX BOUNDS ff ff ff
-10 10
-10 10
-10 10
ITEM: ATOMS id type fx fy fz x y z radius mux muy muz 
1 1 5.1363e-20 3.22052e-08 3.77089e-07 0 0 0 1 0 0.00199348 3.34926 
3 1 -1.1547e-20 -6.14735e-08 9.42071e-10 0 2.3 1 1 0 -0.00102932 3.08743 
2 1 -1.07835e-20 2.92711e-08 -3.76607e-07 0 0 2 1 0 -0.0537606 3.32535 
