ITEM: TIMESTEP
3
ITEM: NUMBER OF ATOMS
3
ITEM: BOX BOUNDS ff ff ff
-10 10
-10 10
-10 10
ITEM: ATOMS id type fx fy fz x y z radius mux muy muz 
1 1 -3.88547e-22 -6.23499e-09 5.15708e-07 0 0 0 1 0 0.0146575 3.33684 
3 1 -2.69642e-20 1.23592e-08 3.81648e-10 0 3.4 1 1 0 -5.33972e-11 3.1132 
2 1 7.08069e-21 -6.1218e-09 -5.1471e-07 0 0 2 1 0 -0.0146575 3.33684 
