ITEM: TIMESTEP
1
ITEM: NUMBER OF ATOMS
3
ITEM: BOX BOUNDS ff ff ff
-10 10
-10 10
-10 10
ITEM: ATOMS id type fx fy fz x y z radius mux muy muz 
1 1 1.93651e-20 -5.63489e-09 5.04168e-07 0 0 0 1 0 0.0181672 3.33496 
3 1 4.29805e-21 1.11561e-08 3.81989e-10 0 3.2 1 1 0 1.06688e-06 3.10935 
2 1 8.86255e-21 -5.51849e-09 -5.03171e-07 0 0 2 1 0 -0.0181861 3.33491 
