ITEM: TIMESTEP
2
ITEM: NUMBER OF ATOMS
3
ITEM: BOX BOUNDS ff ff ff
-10 10
-10 10
-10 10
ITEM: ATOMS id type fx fy fz x y z radius mux muy muz 
1 1 -3.67829e-20 3.24286e-08 3.70447e-07 0 0 0 1 0 0.055422 3.32373 
3 1 3.10127e-20 -6.49844e-08 4.05162e-10 0 2.3 1 1 0 -5.43211e-09 3.08842 
2 1 -3.39026e-20 3.25607e-08 -3.69434e-07 0 0 2 1 0 -0.0554226 3.32373 
