ITEM: TIMESTEP
3
ITEM: NUMBER OF ATOMS
3
ITEM: BOX BOUNDS ff ff ff
-10 10
-10 10
-10 10
ITEM: ATOMS id type fx fy fz x y z radius mux muy muz 
1 1 4.21462e-22 6.92509e-08 3.01476e-07 0 0 0 1 0 0.0737055 3.3219 
3 1 -2.16764e-20 -1.3862e-07 4.2998e-10 0 2.1 1 1 0 -6.25437e-10 3.0862 
2 1 1.0512e-21 6.93746e-08 -3.00442e-07 0 0 2 1 0 -0.0737055 3.3219 
