ITEM: TIMESTEP
1
ITEM: NUMBER OF ATOMS
3
ITEM: BOX BOUNDS ff ff ff
-10 10
-10 10
-10 10
ITEM: ATOMS id type fx fy fz x y z radius mux muy muz 
1 1 -3.59426e-21 -6.24631e-09 5.24409e-07 0 0 0 1 0 0.0119172 3.33857 
3 1 1.98507e-20 1.23875e-08 3.82447e-10 0 3.6 1 1 0 4.35198e-07 3.11655 
2 1 -3.58063e-21 -6.139e-09 -5.2341e-07 0 0 2 1 0 -0.0119289 3.33853 
