ITEM: TIMESTEP
0
ITEM: NUMBER OF ATOMS
2
ITEM: BOX BOUNDS ff ff ff
-10 10
-10 10
-10 10
ITEM: ATOMS id type fx fy fz x y z radius mux muy muz 
2 1 2.37174e-20 -5.66655e-21 -2.75637e-08 0 0 -3.2 1 0 3.11782 0 
1 1 -2.37174e-20 -5.66655e-21 2.75637e-08 0 0 0 1 0 3.11781 0 
