ITEM: TIMESTEP
2
ITEM: NUMBER OF ATOMS
2
ITEM: BOX BOUNDS ff ff ff
-10 10
-10 10
-10 10
ITEM: ATOMS id type fx fy fz x y z radius mux muy muz 
2 1 3.40779e-21 7.22958e-21 -8.2178e-08 0 0 -2.4 1 0 3.08579 0 
1 1 -3.40779e-21 7.22958e-21 8.2178e-08 0 0 0 1 0 3.08579 0 
