ITEM: TIMESTEP
2
ITEM: NUMBER OF ATOMS
2
ITEM: BOX BOUNDS ff ff ff
-10 10
-10 10
-10 10
ITEM: ATOMS id type fx fy fz x y z radius mux muy muz 
2 1 3.36992e-20 7.28142e-21 -1.40221e-08 0 0 -3.8 1 0 3.12734 0 
1 1 -3.36992e-20 7.28142e-21 1.40221e-08 0 0 0 1 0 3.12734 0 
