ITEM: TIMESTEP
151900
ITEM: NUMBER OF ATOMS
1
ITEM: BOX BOUNDS pp ff fm
-1 1
-1 10
0 20
ITEM: ATOMS id type x y z vx vy vz radius fx fy fz mass omegax omegay omegaz tqx tqy tqz 
1 1 0 2.52268 0.499842 0 -1.04393e-28 6.40447e-13 0.5 0 2.91757e-26 0 0.523599 0 0 0 1.45855e-26 0 0 
