ITEM: TIMESTEP
153300
ITEM: NUMBER OF ATOMS
1
ITEM: BOX BOUNDS pp ff fm
-1 1
-1 10
0 20
ITEM: ATOMS id type x y z vx vy vz radius fx fy fz mass omegax omegay omegaz tqx tqy tqz 
1 1 0 2.52268 0.499842 0 1.08091e-29 6.40447e-13 0.5 0 -2.7515e-27 0 0.523599 0 0 0 -1.37553e-27 0 0 
