ITEM: TIMESTEP
145800
ITEM: NUMBER OF ATOMS
1
ITEM: BOX BOUNDS pp ff fm
-1 1
-1 10
0 20
ITEM: ATOMS id type x y z vx vy vz radius fx fy fz mass omegax omegay omegaz tqx tqy tqz 
1 1 0 2.52268 0.499842 0 -5.97427e-24 6.40447e-13 0.5 0 6.56739e-22 0 0.523599 0 0 0 3.28318e-22 0 0 
