ITEM: TIMESTEP
117700
ITEM: NUMBER OF ATOMS
1
ITEM: BOX BOUNDS pp ff fm
-1 1
-1 10
0 20
ITEM: ATOMS id type x y z vx vy vz radius fx fy fz mass omegax omegay omegaz tqx tqy tqz 
1 1 0 2.52268 0.499842 0 -0.000840247 6.40447e-13 0.5 0 0.354826 0 0.523599 0 0 0 0.177385 0 0 
