ITEM: TIMESTEP
125000
ITEM: NUMBER OF ATOMS
1
ITEM: BOX BOUNDS pp ff fm
-1 1
-1 10
0 20
ITEM: ATOMS id type x y z vx vy vz radius fx fy fz mass omegax omegay omegaz tqx tqy tqz 
1 1 0 2.52268 0.499842 0 -9.94666e-11 6.40447e-13 0.5 0 -1.28993e-06 0 0.523599 0 0 0 -6.44864e-07 0 0 
