ITEM: TIMESTEP
131800
ITEM: NUMBER OF ATOMS
1
ITEM: BOX BOUNDS pp ff fm
-1 1
-1 10
0 20
ITEM: ATOMS id type x y z vx vy vz radius fx fy fz mass omegax omegay omegaz tqx tqy tqz 
1 1 0 2.52268 0.499842 0 -7.83503e-14 6.40447e-13 0.5 0 1.6625e-11 0 0.523599 0 0 0 8.31117e-12 0 0 
