ITEM: TIMESTEP
1
ITEM: NUMBER OF ATOMS
2
ITEM: BOX BOUNDS ff ff ff
-10 10
-10 10
-10 10
ITEM: ATOMS id type fx fy fz x y z radius mux muy muz 
2 1 2.78112e-08 -3.11781 -5.53749e-08 0 0 -3.2 1 0 3.11781 0 
1 1 -2.78112e-08 -3.11781 5.53749e-08 0 0 0 1 0 3.11781 0 
