ITEM: TIMESTEP
0
ITEM: NUMBER OF ATOMS
2
ITEM: BOX BOUNDS ff ff ff
-10 10
-10 10
-10 10
ITEM: ATOMS id type fx fy fz x y z radius mux muy muz 
2 1 1.79272e-07 -3.04342 -3.30906e-07 0 0 -2 1 0 3.14159 0 
1 1 -1.79272e-07 -3.14159 3.30906e-07 0 0 0 1 0 3.04342 0 
