ITEM: TIMESTEP
0
ITEM: NUMBER OF ATOMS
2
ITEM: BOX BOUNDS ff ff ff
-10 10
-10 10
-10 10
ITEM: ATOMS id type fx fy fz x y z radius mux muy muz 
2 1 1.20672e-07 -3.06952 -2.32226e-07 0 0 -2.2 1 0 3.06977 0 
1 1 -1.20672e-07 -3.06977 2.32226e-07 0 0 0 1 0 3.06952 0 
