ITEM: TIMESTEP
1
ITEM: NUMBER OF ATOMS
2
ITEM: BOX BOUNDS ff ff ff
-10 10
-10 10
-10 10
ITEM: ATOMS id type fx fy fz x y z radius mux muy muz 
2 1 3.15294e-08 -3.11545 -6.27244e-08 0 0 -3.1 1 0 3.11545 0 
1 1 -3.15294e-08 -3.11545 6.27244e-08 0 0 0 1 0 3.11545 0 
