ITEM: TIMESTEP
1
ITEM: NUMBER OF ATOMS
2
ITEM: BOX BOUNDS ff ff ff
-10 10
-10 10
-10 10
ITEM: ATOMS id type fx fy fz x y z radius mux muy muz 
2 1 -2.89274e-21 -1.97428e-20 2.85165e-07 0 0 -3.3 1 0 0 7.41665 
1 1 2.37668e-21 8.6967e-21 -2.8507e-07 0 0 0 1 0 0 7.41665 
