ITEM: TIMESTEP
1
ITEM: NUMBER OF ATOMS
2
ITEM: BOX BOUNDS ff ff ff
-10 10
-10 10
-10 10
ITEM: ATOMS id type fx fy fz x y z radius mux muy muz 
2 1 3.57911e-21 1.89363e-20 5.06782e-07 0 0 -2.9 1 0 0 7.53382 
1 1 -4.41457e-22 -2.44417e-21 -5.06602e-07 0 0 0 1 0 0 7.53381 
