ITEM: TIMESTEP
2
ITEM: NUMBER OF ATOMS
2
ITEM: BOX BOUNDS ff ff ff
-10 10
-10 10
-10 10
ITEM: ATOMS id type fx fy fz x y z radius mux muy muz 
2 1 -5.85092e-22 1.47457e-21 2.85165e-07 0 0 -3.3 1 0 0 7.41665 
1 1 1.46271e-21 -5.44554e-21 -2.8507e-07 0 0 0 1 0 0 7.41665 
