ITEM: TIMESTEP
0
ITEM: NUMBER OF ATOMS
2
ITEM: BOX BOUNDS ff ff ff
-10 10
-10 10
-10 10
ITEM: ATOMS id type fx fy fz x y z radius mux muy muz 
2 1 2.36953e-21 -3.87524e-20 2.29019e-06 0 0 -2.2 1 0 0 8.06 
1 1 2.51034e-21 1.44974e-20 -2.28915e-06 0 0 0 1 0 0 8.04587 
