ITEM: TIMESTEP
0
ITEM: NUMBER OF ATOMS
2
ITEM: BOX BOUNDS ff ff ff
-10 10
-10 10
-10 10
ITEM: ATOMS id type fx fy fz x y z radius mux muy muz 
2 1 3.03916e-22 -9.35634e-21 3.26162e-07 0 0 -3.2 1 0 0 7.44122 
1 1 -4.62441e-22 -2.0407e-21 -3.26052e-07 0 0 0 1 0 0 7.44031 
