ITEM: TIMESTEP
0
ITEM: NUMBER OF ATOMS
2
ITEM: BOX BOUNDS ff ff ff
-10 10
-10 10
-10 10
ITEM: ATOMS id type fx fy fz x y z radius mux muy muz 
2 1 2.94531e-21 4.00725e-20 5.39611e-06 0 0 -2 1 0 0 7.18078 
1 1 -2.04387e-22 4.76785e-21 -5.39204e-06 0 0 0 1 0 0 8.20661 
