ITEM: TIMESTEP
2
ITEM: NUMBER OF ATOMS
2
ITEM: BOX BOUNDS ff ff ff
-10 10
-10 10
-10 10
ITEM: ATOMS id type fx fy fz x y z radius mux muy muz 
2 1 3.04474e-21 3.63452e-20 3.35797e-06 0 0 -2.1 1 0 0 8.19169 
1 1 2.14991e-22 6.59028e-21 -3.35627e-06 0 0 0 1 0 0 8.19168 
