ITEM: TIMESTEP
1
ITEM: NUMBER OF ATOMS
2
ITEM: BOX BOUNDS ff ff ff
-10 10
-10 10
-10 10
ITEM: ATOMS id type fx fy fz x y z radius mux muy muz 
2 1 6.24493e-22 1.13646e-20 2.50708e-07 0 0 -3.4 1 0 0 7.39584 
1 1 2.42317e-21 2.23234e-20 -2.50626e-07 0 0 0 1 0 0 7.39583 
