ITEM: TIMESTEP
0
ITEM: NUMBER OF ATOMS
2
ITEM: BOX BOUNDS ff ff ff
-10 10
-10 10
-10 10
ITEM: ATOMS id type fx fy fz x y z radius mux muy muz 
2 1 0 0 -4.30062e-07 0 0 -2.4 1 0 6.89727 0 
1 1 0 0 4.30062e-07 0 0 0 1 0 6.89568 0 
