ITEM: TIMESTEP
0
ITEM: NUMBER OF ATOMS
2
ITEM: BOX BOUNDS ff ff ff
-10 10
-10 10
-10 10
ITEM: ATOMS id type fx fy fz x y z radius mux muy muz 
2 1 0 0 -8.98849e-08 0 0 -3.6 1 0 7.09399 0 
1 1 0 0 8.98849e-08 0 0 0 1 0 7.0939 0 
