ITEM: TIMESTEP
0
ITEM: NUMBER OF ATOMS
2
ITEM: BOX BOUNDS ff ff ff
-10 10
-10 10
-10 10
ITEM: ATOMS id type fx fy fz x y z radius mux muy muz 
2 1 0 0 -2.74912e-07 0 0 -2.7 1 0 6.97888 0 
1 1 0 0 2.74912e-07 0 0 0 1 0 6.97818 0 
