ITEM: TIMESTEP
0
ITEM: NUMBER OF ATOMS
2
ITEM: BOX BOUNDS ff ff ff
-10 10
-10 10
-10 10
ITEM: ATOMS id type fx fy fz x y z radius mux muy muz 
2 1 0 0 -1.83151e-07 0 0 -3 1 0 7.03229 0 
1 1 0 0 1.83151e-07 0 0 0 1 0 7.03195 0 
