ITEM: TIMESTEP
2
ITEM: NUMBER OF ATOMS
1
ITEM: BOX BOUNDS ff ff ff
-10 10
-10 10
-10 10
ITEM: ATOMS id type fx fy fz x y z radius mux muy muz 
3 1 -9.2094e-09 3.99947e-09 -796789 0 0 -3.3 1 0 2.44517e+06 0 
