ITEM: TIMESTEP
0
ITEM: NUMBER OF ATOMS
1
ITEM: BOX BOUNDS ff ff ff
-10 10
-10 10
-10 10
ITEM: ATOMS id type fx fy fz x y z radius mux muy muz 
3 1 2.5443e-07 -3.04896e-08 -2.27138e+06 0 0 -2.9 1 0 2.32616e+06 0 
