ITEM: TIMESTEP
1
ITEM: NUMBER OF ATOMS
1
ITEM: BOX BOUNDS ff ff ff
-10 10
-10 10
-10 10
ITEM: ATOMS id type fx fy fz x y z radius mux muy muz 
3 1 2.9266e+06 1.98885e+06 3.79109e+17 0 0 -2.4 1 0 -3.33222e+06 0 
