ITEM: TIMESTEP
2
ITEM: NUMBER OF ATOMS
1
ITEM: BOX BOUNDS ff ff ff
-10 10
-10 10
-10 10
ITEM: ATOMS id type fx fy fz x y z radius mux muy muz 
3 1 2.81839e-08 -5.32949e-09 -1.08235e+06 0 0 -3.2 1 0 2.43473e+06 0 
