ITEM: TIMESTEP
2
ITEM: NUMBER OF ATOMS
1
ITEM: BOX BOUNDS ff ff ff
-10 10
-10 10
-10 10
ITEM: ATOMS id type fx fy fz x y z radius mux muy muz 
3 1 4.03117e-08 -1.06739e-08 -2.14152e+06 0 0 -2.9 1 0 2.39755e+06 0 
