ITEM: TIMESTEP
2
ITEM: NUMBER OF ATOMS
1
ITEM: BOX BOUNDS ff ff ff
-10 10
-10 10
-10 10
ITEM: ATOMS id type fx fy fz x y z radius mux muy muz 
3 1 -2.92903e-08 -1.92614e-09 -1.41266e+06 0 0 -3.1 1 0 2.42213e+06 0 
