ITEM: TIMESTEP
14500
ITEM: NUMBER OF ATOMS
1
ITEM: BOX BOUNDS pp ff fm
-1 1
-1 10
0 20
ITEM: ATOMS id type x y z vx vy vz radius fx fy fz mass omegax omegay omegaz tqx tqy tqz 
1 1 0 0 0.499842 0 0 -3.16142e-12 0.5 0 0 6.60239e-10 0.523599 0 0 0 0 0 0 
