ITEM: TIMESTEP
150700
ITEM: NUMBER OF ATOMS
1
ITEM: BOX BOUNDS pp ff fm
-1 1
-1 10
0 20
ITEM: ATOMS id type x y z vx vy vz radius fx fy fz mass omegax omegay omegaz tqx tqy tqz 
1 1 0 2.52268 0.499842 0 5.99635e-29 6.40447e-13 0.5 0 -1.82117e-25 0 0.523599 0 0 0 -9.10443e-26 0 0 
