ITEM: TIMESTEP
16600
ITEM: NUMBER OF ATOMS
1
ITEM: BOX BOUNDS pp ff fm
-1 1
-1 10
0 20
ITEM: ATOMS id type x y z vx vy vz radius fx fy fz mass omegax omegay omegaz tqx tqy tqz 
1 1 0 0.0789684 0.499842 0 4.89627 6.38799e-13 0.5 0 -2.56825 3.21521e-13 0.523599 0 0 0 -1.28392 0 0 
