ITEM: TIMESTEP
4600
ITEM: NUMBER OF ATOMS
1
ITEM: BOX BOUNDS pp ff fm
-1 1
-1 10
0 20
ITEM: ATOMS id type x y z vx vy vz radius fx fy fz mass omegax omegay omegaz tqx tqy tqz 
1 1 0 0 0.499841 0 0 0.000116472 0.5 0 0 0.0320708 0.523599 0 0 0 0 0 0 
