ITEM: TIMESTEP
16000
ITEM: NUMBER OF ATOMS
1
ITEM: BOX BOUNDS pp ff fm
-1 1
-1 10
0 20
ITEM: ATOMS id type x y z vx vy vz radius fx fy fz mass omegax omegay omegaz tqx tqy tqz 
1 1 0 0.0495024 0.499842 0 4.9257 6.25018e-13 0.5 0 -2.56825 3.01004e-12 0.523599 0 0 0 -1.28392 0 0 
