ITEM: TIMESTEP
12700
ITEM: NUMBER OF ATOMS
1
ITEM: BOX BOUNDS pp ff fm
-1 1
-1 10
0 20
ITEM: ATOMS id type x y z vx vy vz radius fx fy fz mass omegax omegay omegaz tqx tqy tqz 
1 1 0 0 0.499842 0 0 9.00849e-11 0.5 0 0 -3.03688e-09 0.523599 0 0 0 0 0 0 
