ITEM: TIMESTEP
11300
ITEM: NUMBER OF ATOMS
1
ITEM: BOX BOUNDS pp ff fm
-1 1
-1 10
0 20
ITEM: ATOMS id type x y z vx vy vz radius fx fy fz mass omegax omegay omegaz tqx tqy tqz 
1 1 0 0 0.499842 0 0 -1.03226e-09 0.5 0 0 -1.37936e-08 0.523599 0 0 0 0 0 0 
