ITEM: TIMESTEP
18000
ITEM: NUMBER OF ATOMS
1
ITEM: BOX BOUNDS pp ff fm
-1 1
-1 10
0 20
ITEM: ATOMS id type x y z vx vy vz radius fx fy fz mass omegax omegay omegaz tqx tqy tqz 
1 1 0 0.147035 0.499842 0 4.8276 6.4044e-13 0.5 0 -2.56825 1.77636e-15 0.523599 0 0 0 -1.28392 0 0 
