ITEM: TIMESTEP
134200
ITEM: NUMBER OF ATOMS
1
ITEM: BOX BOUNDS pp ff fm
-1 1
-1 10
0 20
ITEM: ATOMS id type x y z vx vy vz radius fx fy fz mass omegax omegay omegaz tqx tqy tqz 
1 1 0 2.52268 0.499842 0 -1.95622e-15 6.40447e-13 0.5 0 1.30859e-13 0 0.523599 0 0 0 6.54192e-14 0 0 
