ITEM: TIMESTEP
0
ITEM: NUMBER OF ATOMS
1
ITEM: BOX BOUNDS ff ff ff
-10 10
-10 10
-10 10
ITEM: ATOMS id type fx fy fz x y z radius mux muy muz 
3 1 3.51974e-21 8.12565e-08 4.01646e-10 0 2.6 1 1 3.07156 0 0 
