ITEM: TIMESTEP
3
ITEM: NUMBER OF ATOMS
1
ITEM: BOX BOUNDS ff ff ff
-10 10
-10 10
-10 10
ITEM: ATOMS id type fx fy fz x y z radius mux muy muz 
3 1 -9.34152e-21 -1.74445e-20 -3.79083e-08 0 0 -2.9 1 0 3.11069 0 
