ITEM: TIMESTEP
0
ITEM: NUMBER OF ATOMS
1
ITEM: BOX BOUNDS ff ff ff
-10 10
-10 10
-10 10
ITEM: ATOMS id type fx fy fz x y z radius mux muy muz 
3 1 4.1744e-21 -5.60811e-21 -3.28713e-07 0 0 -3.6 1 0 0 3.1779 
