ITEM: TIMESTEP
0
ITEM: NUMBER OF ATOMS
2
ITEM: BOX BOUNDS ff ff ff
-10 10
-10 10
-10 10
ITEM: ATOMS id type fx fy fz x y z radius mux muy muz 
2 1 1.8383e-21 -1.70781e-20 5.90248e-08 0 0 -3.2 1 0 0 3.19035 
1 1 9.70275e-22 -1.44216e-21 -5.89898e-08 0 0 0 1 0 0 3.19027 
