ITEM: TIMESTEP
2
ITEM: NUMBER OF ATOMS
2
ITEM: BOX BOUNDS ff ff ff
-10 10
-10 10
-10 10
ITEM: ATOMS id type fx fy fz x y z radius mux muy muz 
2 1 2.57941e-21 3.20592e-21 6.74002e-08 0 0 -3.1 1 0 0 3.19522 
1 1 -5.51171e-22 -1.03638e-20 -6.73594e-08 0 0 0 1 0 0 3.19522 
