ITEM: TIMESTEP
2
ITEM: NUMBER OF ATOMS
1
ITEM: BOX BOUNDS ff ff ff
-10 10
-10 10
-10 10
ITEM: ATOMS id type fx fy fz x y z radius mux muy muz 
3 1 8.31995e-21 -4.32988e-22 -3.97779e-08 0 0 -2.9 1 0 3.11069 0 
