ITEM: TIMESTEP
2
ITEM: NUMBER OF ATOMS
1
ITEM: BOX BOUNDS ff ff ff
-10 10
-10 10
-10 10
ITEM: ATOMS id type fx fy fz x y z radius mux muy muz 
3 1 -7.13637e-21 -1.86085e-21 -1.17063e-07 0 0 -2.2 1 0 3.07176 0 
