ITEM: TIMESTEP
1
ITEM: NUMBER OF ATOMS
1
ITEM: BOX BOUNDS ff ff ff
-10 10
-10 10
-10 10
ITEM: ATOMS id type fx fy fz x y z radius mux muy muz 
3 1 9.85866e-21 -1.86619e-22 -1.89123e-08 0 0 -3.5 1 0 3.12394 0 
