ITEM: TIMESTEP
26000
ITEM: NUMBER OF ATOMS
2
ITEM: BOX BOUNDS ff ff ff
-1 1
-1 1
0 10
ITEM: ATOMS id type fx fy fz x y z radius mass 
2 1 0 0 -4.9029e-08 0 0 3.99961 0.5 1 
1 1 0 0 3.45742e-07 0 0 4.99816 0.5 1 
