ITEM: TIMESTEP
22000
ITEM: NUMBER OF ATOMS
2
ITEM: BOX BOUNDS ff ff ff
-1 1
-1 1
0 10
ITEM: ATOMS id type fx fy fz x y z radius mass 
2 1 0 0 -8.81978e-06 0 0 3.99961 0.5 1 
1 1 0 0 -1.2947e-05 0 0 4.99816 0.5 1 
