ITEM: TIMESTEP
137000
ITEM: NUMBER OF ATOMS
2
ITEM: BOX BOUNDS ff ff ff
-1 1
-1 1
0 10
ITEM: ATOMS id type fx fy fz x y z radius mass 
2 1 0 0 9.58046e-07 0 0 3.99887 0.5 1 
1 1 0 0 0 0 0 4.99816 0.5 1 
