ITEM: TIMESTEP
8000
ITEM: NUMBER OF ATOMS
2
ITEM: BOX BOUNDS ff ff ff
-1 1
-1 1
0 10
ITEM: ATOMS id type fx fy fz x y z radius mass 
2 1 0 0 0.045413 0 0 3.9996 0.5 1 
1 1 0 0 0.130647 0 0 4.99815 0.5 1 
