ITEM: TIMESTEP
2
ITEM: NUMBER OF ATOMS
2
ITEM: BOX BOUNDS ff ff ff
-10 10
-10 10
-10 10
ITEM: ATOMS id type fx fy fz x y z radius mux muy muz 
2 1 1.04727e-21 3.11077e-20 1.21548e-07 0 0 -2.7 1 0 0 3.22348 
1 1 7.96072e-23 5.72408e-22 -1.21466e-07 0 0 0 1 0 0 3.22348 
