ITEM: TIMESTEP
0
ITEM: NUMBER OF ATOMS
2
ITEM: BOX BOUNDS ff ff ff
-10 10
-10 10
-10 10
ITEM: ATOMS id type fx fy fz x y z radius mux muy muz 
2 1 -9.28293e-22 3.07654e-20 2.35932e-08 0 0 -4 1 0 0 3.16634 
1 1 5.78192e-22 -2.14243e-21 -2.35806e-08 0 0 0 1 0 0 3.16633 
