ITEM: TIMESTEP
0
ITEM: NUMBER OF ATOMS
2
ITEM: BOX BOUNDS ff ff ff
-10 10
-10 10
-10 10
ITEM: ATOMS id type fx fy fz x y z radius mux muy muz 
2 1 1.28677e-21 5.02648e-20 1.43529e-07 0 0 -2.6 1 0 0 3.23392 
1 1 -3.25992e-22 -3.08744e-21 -1.43429e-07 0 0 0 1 0 0 3.23359 
