ITEM: TIMESTEP
1
ITEM: NUMBER OF ATOMS
2
ITEM: BOX BOUNDS ff ff ff
-10 10
-10 10
-10 10
ITEM: ATOMS id type fx fy fz x y z radius mux muy muz 
2 1 -3.19887e-21 4.06942e-21 2.53519e-07 0 0 -2.3 1 0 0 3.27623 
1 1 -1.41984e-22 1.96758e-21 -2.53316e-07 0 0 0 1 0 0 3.27623 
