ITEM: TIMESTEP
1
ITEM: NUMBER OF ATOMS
2
ITEM: BOX BOUNDS ff ff ff
-10 10
-10 10
-10 10
ITEM: ATOMS id type fx fy fz x y z radius mux muy muz 
2 1 -2.90768e-21 -4.1674e-21 5.19378e-08 0 0 -3.3 1 0 0 3.18592 
1 1 -3.44865e-22 -1.40557e-21 -5.19075e-08 0 0 0 1 0 0 3.18592 
