ITEM: TIMESTEP
3
ITEM: NUMBER OF ATOMS
1
ITEM: BOX BOUNDS ff ff ff
-10 10
-10 10
-10 10
ITEM: ATOMS id type fx fy fz x y z radius mux muy muz 
3 1 -1.10185e-20 2.71463e-08 3.82247e-10 0 2.9 1 1 0 -1.39626e-10 3.10269 
