ITEM: TIMESTEP
2
ITEM: NUMBER OF ATOMS
1
ITEM: BOX BOUNDS ff ff ff
-10 10
-10 10
-10 10
ITEM: ATOMS id type fx fy fz x y z radius mux muy muz 
3 1 1.63897e-20 1.39139e-08 4.00508e-10 0 2.3 1 1 0 -5.43211e-09 3.08842 
