ITEM: TIMESTEP
0
ITEM: NUMBER OF ATOMS
1
ITEM: BOX BOUNDS ff ff ff
-10 10
-10 10
-10 10
ITEM: ATOMS id type fx fy fz x y z radius mux muy muz 
3 1 1.37628e-20 2.09089e-08 3.81815e-10 0 3.4 1 1 0 -9.15502e-05 3.11309 
