ITEM: TIMESTEP
2
ITEM: NUMBER OF ATOMS
1
ITEM: BOX BOUNDS ff ff ff
-10 10
-10 10
-10 10
ITEM: ATOMS id type fx fy fz x y z radius mux muy muz 
3 1 6.50094e-21 -4.19174e-08 4.40191e-10 0 2 1 1 0 -2.7303e-06 3.08676 
