ITEM: TIMESTEP
1
ITEM: NUMBER OF ATOMS
1
ITEM: BOX BOUNDS ff ff ff
-10 10
-10 10
-10 10
ITEM: ATOMS id type fx fy fz x y z radius mux muy muz 
3 1 -1.16642e-20 2.0844e-08 3.94243e-10 0 2.4 1 1 0 8.45943e-06 3.09041 
