ITEM: TIMESTEP
3
ITEM: NUMBER OF ATOMS
1
ITEM: BOX BOUNDS ff ff ff
-10 10
-10 10
-10 10
ITEM: ATOMS id type fx fy fz x y z radius mux muy muz 
3 1 4.7778e-21 2.22748e-08 3.81577e-10 0 3.3 1 1 0 -6.4042e-11 3.11134 
