ITEM: TIMESTEP
3
ITEM: NUMBER OF ATOMS
1
ITEM: BOX BOUNDS ff ff ff
-10 10
-10 10
-10 10
ITEM: ATOMS id type fx fy fz x y z radius mux muy muz 
3 1 -4.29246e-20 1.8285e-08 3.82514e-10 0 3.6 1 1 0 -3.76302e-11 3.11656 
