ITEM: TIMESTEP
1
ITEM: NUMBER OF ATOMS
1
ITEM: BOX BOUNDS ff ff ff
-10 10
-10 10
-10 10
ITEM: ATOMS id type fx fy fz x y z radius mux muy muz 
3 1 -1.54878e-20 1.70587e-08 3.82933e-10 0 3.7 1 1 0 3.52396e-07 3.11806 
