ITEM: TIMESTEP
1
ITEM: NUMBER OF ATOMS
1
ITEM: BOX BOUNDS ff ff ff
-10 10
-10 10
-10 10
ITEM: ATOMS id type fx fy fz x y z radius mux muy muz 
3 1 -5.91167e-20 2.7302e-09 4.09373e-10 0 2.2 1 1 0 1.50118e-05 3.08685 
