ITEM: TIMESTEP
2
ITEM: NUMBER OF ATOMS
1
ITEM: BOX BOUNDS ff ff ff
-10 10
-10 10
-10 10
ITEM: ATOMS id type fx fy fz x y z radius mux muy muz 
3 1 -2.0588e-20 2.49574e-08 3.81481e-10 0 3.1 1 1 0 -1.43833e-08 3.10726 
