ITEM: TIMESTEP
0
ITEM: NUMBER OF ATOMS
1
ITEM: BOX BOUNDS ff ff ff
-10 10
-10 10
-10 10
ITEM: ATOMS id type fx fy fz x y z radius mux muy muz 
3 1 6.50094e-21 -4.19174e-08 4.40191e-10 0 2 1 1 0 0.0842978 3.11349 
