ITEM: TIMESTEP
3
ITEM: NUMBER OF ATOMS
1
ITEM: BOX BOUNDS ff ff ff
-10 10
-10 10
-10 10
ITEM: ATOMS id type fx fy fz x y z radius mux muy muz 
3 1 2.9872e-20 2.78319e-08 3.84586e-10 0 2.7 1 1 0 -2.13219e-10 3.09776 
