ITEM: TIMESTEP
1
ITEM: NUMBER OF ATOMS
1
ITEM: BOX BOUNDS ff ff ff
-10 10
-10 10
-10 10
ITEM: ATOMS id type fx fy fz x y z radius mux muy muz 
3 1 2.00811e-20 2.70203e-08 3.86721e-10 0 2.6 1 1 0 4.86562e-06 3.09522 
