ITEM: TIMESTEP
2
ITEM: NUMBER OF ATOMS
1
ITEM: BOX BOUNDS ff ff ff
-10 10
-10 10
-10 10
ITEM: ATOMS id type fx fy fz x y z radius mux muy muz 
3 1 -1.3352e-20 1.95724e-08 3.82135e-10 0 3.5 1 1 0 -7.84697e-09 3.11493 
