ITEM: TIMESTEP
0
ITEM: NUMBER OF ATOMS
1
ITEM: BOX BOUNDS ff ff ff
-10 10
-10 10
-10 10
ITEM: ATOMS id type fx fy fz x y z radius mux muy muz 
3 1 3.71112e-20 2.49025e-08 3.8982e-10 0 2.5 1 1 0 -0.000627165 3.09215 
