ITEM: TIMESTEP
3
ITEM: NUMBER OF ATOMS
1
ITEM: BOX BOUNDS ff ff ff
-10 10
-10 10
-10 10
ITEM: ATOMS id type fx fy fz x y z radius mux muy muz 
3 1 -2.67694e-20 2.36397e-08 3.81451e-10 0 3.2 1 1 0 -7.7189e-11 3.10936 
