ITEM: TIMESTEP
3
ITEM: NUMBER OF ATOMS
1
ITEM: BOX BOUNDS ff ff ff
-10 10
-10 10
-10 10
ITEM: ATOMS id type fx fy fz x y z radius mux muy muz 
3 1 3.01284e-20 2.77734e-08 3.83157e-10 0 2.8 1 1 0 -1.7208e-10 3.10026 
