ITEM: TIMESTEP
0
ITEM: NUMBER OF ATOMS
1
ITEM: BOX BOUNDS ff ff ff
-10 10
-10 10
-10 10
ITEM: ATOMS id type fx fy fz x y z radius mux muy muz 
3 1 1.51862e-20 -1.47971e-08 4.21987e-10 0 2.1 1 1 0 -0.00173985 3.08459 
