ITEM: TIMESTEP
0
ITEM: NUMBER OF ATOMS
1
ITEM: BOX BOUNDS ff ff ff
-10 10
-10 10
-10 10
ITEM: ATOMS id type fx fy fz x y z radius mux muy muz 
3 1 8.40054e-21 1.59e-08 3.83377e-10 0 3.8 1 1 0 -4.43204e-05 3.11942 
