ITEM: TIMESTEP
39000
ITEM: NUMBER OF ATOMS
1
ITEM: BOX BOUNDS ff ff ff
-1 1
-1 10
0 10
ITEM: ATOMS id type fx fy fz vx vy vz omegax omegay omegaz x y z radius mass 
1 1 0 19.7836 -121.791 0 2.54509 0.49975 -4.94284 0 0 0 1.37044 0.648869 0.5 1 
