ITEM: TIMESTEP
37000
ITEM: NUMBER OF ATOMS
1
ITEM: BOX BOUNDS ff ff ff
-1 1
-1 10
0 10
ITEM: ATOMS id type fx fy fz vx vy vz omegax omegay omegaz x y z radius mass 
1 1 0 0 0 0 3.53553 -3.53553 0 0 0 0 1.30815 0.691852 0.5 1 
