ITEM: TIMESTEP
0
ITEM: NUMBER OF ATOMS
2
ITEM: BOX BOUNDS ff ff ff
-10 10
-10 10
-10 10
ITEM: ATOMS id type fx fy fz x y z radius mux muy muz 
2 1 7.15133e-21 -4.06245e-20 4.09966e-07 0 0 -2.1 1 0 0 3.32251 
1 1 9.04432e-22 1.99222e-21 -4.09582e-07 0 0 0 1 0 0 3.32097 
