ITEM: TIMESTEP
2
ITEM: NUMBER OF ATOMS
2
ITEM: BOX BOUNDS ff ff ff
-10 10
-10 10
-10 10
ITEM: ATOMS id type fx fy fz x y z radius mux muy muz 
2 1 -3.02597e-22 -2.15006e-20 5.58087e-07 0 0 -2 1 0 0 3.35103 
1 1 8.01946e-22 1.16646e-20 -5.57493e-07 0 0 0 1 0 0 3.35103 
