ITEM: TIMESTEP
2
ITEM: NUMBER OF ATOMS
2
ITEM: BOX BOUNDS ff ff ff
-10 10
-10 10
-10 10
ITEM: ATOMS id type fx fy fz x y z radius mux muy muz 
2 1 -3.8696e-21 -2.08925e-20 2.06727e-07 0 0 -2.4 1 0 0 3.25948 
1 1 -1.40073e-22 8.83346e-21 -2.0657e-07 0 0 0 1 0 0 3.25948 
