ITEM: TIMESTEP
2
ITEM: NUMBER OF ATOMS
2
ITEM: BOX BOUNDS ff ff ff
-10 10
-10 10
-10 10
ITEM: ATOMS id type fx fy fz x y z radius mux muy muz 
2 1 -9.56135e-22 4.71054e-21 1.21548e-07 0 0 -2.7 1 0 0 3.22348 
1 1 -1.05413e-21 -1.0717e-20 -1.21466e-07 0 0 0 1 0 0 3.22348 
