ITEM: TIMESTEP
0
ITEM: NUMBER OF ATOMS
2
ITEM: BOX BOUNDS ff ff ff
-10 10
-10 10
-10 10
ITEM: ATOMS id type fx fy fz x y z radius mux muy muz 
2 1 -4.80382e-23 3.47752e-20 2.06765e-07 0 0 -2.4 1 0 0 3.26009 
1 1 1.63321e-24 -9.45179e-21 -2.06608e-07 0 0 0 1 0 0 3.25951 
