ITEM: TIMESTEP
2
ITEM: NUMBER OF ATOMS
2
ITEM: BOX BOUNDS ff ff ff
-10 10
-10 10
-10 10
ITEM: ATOMS id type fx fy fz x y z radius mux muy muz 
2 1 -1.84476e-21 -8.91314e-21 2.61551e-08 0 0 -3.9 1 0 0 3.1683 
1 1 -4.59674e-23 -6.40845e-21 -2.6141e-08 0 0 0 1 0 0 3.1683 
