ITEM: TIMESTEP
2
ITEM: NUMBER OF ATOMS
2
ITEM: BOX BOUNDS ff ff ff
-10 10
-10 10
-10 10
ITEM: ATOMS id type fx fy fz x y z radius mux muy muz 
2 1 2.55058e-21 -1.48175e-20 2.90785e-08 0 0 -3.8 1 0 0 3.17048 
1 1 -7.23134e-22 1.77867e-21 -2.90627e-08 0 0 0 1 0 0 3.17048 
