ITEM: TIMESTEP
1
ITEM: NUMBER OF ATOMS
2
ITEM: BOX BOUNDS ff ff ff
-10 10
-10 10
-10 10
ITEM: ATOMS id type fx fy fz x y z radius mux muy muz 
2 1 1.98126e-21 -1.1846e-20 5.19378e-08 0 0 -3.3 1 0 0 3.18592 
1 1 1.04546e-22 -1.24808e-20 -5.19075e-08 0 0 0 1 0 0 3.18592 
