ITEM: TIMESTEP
1
ITEM: NUMBER OF ATOMS
2
ITEM: BOX BOUNDS ff ff ff
-10 10
-10 10
-10 10
ITEM: ATOMS id type fx fy fz x y z radius mux muy muz 
2 1 1.47001e-20 1.11036e-21 -6.6538e-08 0 0 -2.5 1 0 3.09212 0 
1 1 3.5674e-21 -2.01563e-21 6.6538e-08 0 0 0 1 0 3.09212 0 
