ITEM: TIMESTEP
1
ITEM: NUMBER OF ATOMS
2
ITEM: BOX BOUNDS ff ff ff
-10 10
-10 10
-10 10
ITEM: ATOMS id type fx fy fz x y z radius mux muy muz 
2 1 -2.20381e-20 2.14426e-20 -3.87549e-08 0 0 -2.9 1 0 3.10972 0 
1 1 5.85437e-21 -4.99058e-21 3.87549e-08 0 0 0 1 0 3.10972 0 
