ITEM: TIMESTEP
1
ITEM: NUMBER OF ATOMS
2
ITEM: BOX BOUNDS ff ff ff
-10 10
-10 10
-10 10
ITEM: ATOMS id type fx fy fz x y z radius mux muy muz 
2 1 -4.63117e-22 -7.92617e-21 2.06727e-07 0 0 -2.4 1 0 0 3.25949 
1 1 6.06877e-22 1.26514e-20 -2.0657e-07 0 0 0 1 0 0 3.25948 
