ITEM: TIMESTEP
1
ITEM: NUMBER OF ATOMS
2
ITEM: BOX BOUNDS ff ff ff
-10 10
-10 10
-10 10
ITEM: ATOMS id type fx fy fz x y z radius mux muy muz 
2 1 -1.28656e-20 -1.48622e-20 -2.2939e-07 0 0 -2.2 1 0 3.06952 0 
1 1 3.32927e-20 5.32519e-21 2.2939e-07 0 0 0 1 0 3.06952 0 
