ITEM: TIMESTEP
0
ITEM: NUMBER OF ATOMS
2
ITEM: BOX BOUNDS ff ff ff
-10 10
-10 10
-10 10
ITEM: ATOMS id type fx fy fz x y z radius mux muy muz 
2 1 2.31816e-20 -5.50224e-21 -2.5238e-08 0 0 -3.9 1 0 3.12841 0 
1 1 2.7471e-20 1.07984e-20 2.5238e-08 0 0 0 1 0 3.12841 0 
