ITEM: TIMESTEP
0
ITEM: NUMBER OF ATOMS
2
ITEM: BOX BOUNDS ff ff ff
-10 10
-10 10
-10 10
ITEM: ATOMS id type fx fy fz x y z radius mux muy muz 
2 1 2.8158e-20 7.96099e-21 -7.06862e-08 0 0 -3 1 0 3.1128 0 
1 1 2.8335e-20 1.07631e-20 7.06855e-08 0 0 0 1 0 3.11277 0 
