ITEM: TIMESTEP
0
ITEM: NUMBER OF ATOMS
2
ITEM: BOX BOUNDS ff ff ff
-10 10
-10 10
-10 10
ITEM: ATOMS id type fx fy fz x y z radius mux muy muz 
2 1 -2.66972e-20 1.67499e-20 -3.8676e-08 0 0 -3.5 1 0 3.12339 0 
1 1 -3.60614e-20 -4.85974e-21 3.86759e-08 0 0 0 1 0 3.12338 0 
