ITEM: TIMESTEP
0
ITEM: NUMBER OF ATOMS
2
ITEM: BOX BOUNDS ff ff ff
-10 10
-10 10
-10 10
ITEM: ATOMS id type fx fy fz x y z radius mux muy muz 
2 1 3.45766e-20 -2.06667e-20 -2.71863e-07 0 0 -2.1 1 0 3.05936 0 
1 1 6.36997e-21 -3.6979e-21 2.71832e-07 0 0 0 1 0 3.05901 0 
