ITEM: TIMESTEP
1
ITEM: NUMBER OF ATOMS
2
ITEM: BOX BOUNDS ff ff ff
-10 10
-10 10
-10 10
ITEM: ATOMS id type fx fy fz x y z radius mux muy muz 
2 1 6.14898e-21 7.81933e-21 -3.86758e-08 0 0 -3.5 1 0 3.12338 0 
1 1 2.74881e-20 9.01984e-21 3.86758e-08 0 0 0 1 0 3.12338 0 
