ITEM: TIMESTEP
0
ITEM: NUMBER OF ATOMS
2
ITEM: BOX BOUNDS ff ff ff
-10 10
-10 10
-10 10
ITEM: ATOMS id type fx fy fz x y z radius mux muy muz 
2 1 6.31868e-21 1.56327e-20 -8.06192e-08 0 0 -2.9 1 0 3.10975 0 
1 1 -3.41519e-20 1.76013e-21 8.06182e-08 0 0 0 1 0 3.10972 0 
