ITEM: TIMESTEP
1
ITEM: NUMBER OF ATOMS
2
ITEM: BOX BOUNDS ff ff ff
-10 10
-10 10
-10 10
ITEM: ATOMS id type fx fy fz x y z radius mux muy muz 
2 1 -1.00099e-21 -1.00533e-20 -4.87274e-08 0 0 -3.3 1 0 3.11989 0 
1 1 -2.33331e-20 -7.66096e-22 4.87274e-08 0 0 0 1 0 3.11989 0 
