ITEM: TIMESTEP
1
ITEM: NUMBER OF ATOMS
2
ITEM: BOX BOUNDS ff ff ff
-10 10
-10 10
-10 10
ITEM: ATOMS id type fx fy fz x y z radius mux muy muz 
2 1 1.91486e-20 1.60477e-21 -2.67268e-08 0 0 -3.2 1 0 3.11781 0 
1 1 -1.86221e-20 2.94068e-20 2.67268e-08 0 0 0 1 0 3.11781 0 
