ITEM: TIMESTEP
1
ITEM: NUMBER OF ATOMS
2
ITEM: BOX BOUNDS ff ff ff
-10 10
-10 10
-10 10
ITEM: ATOMS id type fx fy fz x y z radius mux muy muz 
2 1 -1.36206e-20 -1.58252e-20 -1.19572e-07 0 0 -2.1 1 0 3.05902 0 
1 1 7.80758e-21 7.46347e-21 1.19572e-07 0 0 0 1 0 3.05901 0 
