ITEM: TIMESTEP
1
ITEM: NUMBER OF ATOMS
2
ITEM: BOX BOUNDS ff ff ff
-10 10
-10 10
-10 10
ITEM: ATOMS id type fx fy fz x y z radius mux muy muz 
2 1 -5.0059e-20 -1.89113e-20 -7.67598e-08 0 0 -2.4 1 0 3.08579 0 
1 1 4.55234e-20 -1.30268e-20 7.67597e-08 0 0 0 1 0 3.08579 0 
