ITEM: TIMESTEP
1
ITEM: NUMBER OF ATOMS
2
ITEM: BOX BOUNDS ff ff ff
-10 10
-10 10
-10 10
ITEM: ATOMS id type fx fy fz x y z radius mux muy muz 
2 1 5.0174e-21 3.82822e-22 -4.41481e-08 0 0 -2.8 1 0 3.10622 0 
1 1 -1.38996e-20 3.68072e-21 4.41481e-08 0 0 0 1 0 3.10622 0 
