ITEM: TIMESTEP
1
ITEM: NUMBER OF ATOMS
2
ITEM: BOX BOUNDS ff ff ff
-10 10
-10 10
-10 10
ITEM: ATOMS id type fx fy fz x y z radius mux muy muz 
2 1 0 0 5.13529e-08 0 0 -3.3 1 0 0 3.18592 
1 1 0 0 -5.13529e-08 0 0 0 1 0 0 3.18592 
