ITEM: TIMESTEP
2
ITEM: NUMBER OF ATOMS
2
ITEM: BOX BOUNDS ff ff ff
-10 10
-10 10
-10 10
ITEM: ATOMS id type fx fy fz x y z radius mux muy muz 
2 1 -1.3502e-20 -8.26014e-21 -1.14454e-08 0 0 -4 1 0 3.12937 0 
1 1 1.29336e-20 -8.10095e-21 1.14454e-08 0 0 0 1 0 3.12937 0 
