ITEM: TIMESTEP
0
ITEM: NUMBER OF ATOMS
2
ITEM: BOX BOUNDS ff ff ff
-10 10
-10 10
-10 10
ITEM: ATOMS id type fx fy fz x y z radius mux muy muz 
2 1 -9.85262e-23 -2.27337e-20 -9.56713e-08 0 0 -2.3 1 0 3.07852 0 
1 1 -1.26599e-20 -2.14109e-20 9.56713e-08 0 0 0 1 0 3.07834 0 
