ITEM: TIMESTEP
1
ITEM: NUMBER OF ATOMS
2
ITEM: BOX BOUNDS ff ff ff
-10 10
-10 10
-10 10
ITEM: ATOMS id type fx fy fz x y z radius mux muy muz 
2 1 -1.43771e-20 1.02368e-20 -3.54296e-08 0 0 -3 1 0 3.11277 0 
1 1 -2.24675e-20 1.44762e-20 3.54296e-08 0 0 0 1 0 3.11277 0 
