ITEM: TIMESTEP
1
ITEM: NUMBER OF ATOMS
2
ITEM: BOX BOUNDS ff ff ff
-10 10
-10 10
-10 10
ITEM: ATOMS id type fx fy fz x y z radius mux muy muz 
2 1 2.2138e-20 1.0041e-20 -6.11825e-08 0 0 -2.6 1 0 3.09753 0 
1 1 -2.2138e-20 1.0041e-20 6.11825e-08 0 0 0 1 0 3.09753 0 
