ITEM: TIMESTEP
2
ITEM: NUMBER OF ATOMS
2
ITEM: BOX BOUNDS ff ff ff
-10 10
-10 10
-10 10
ITEM: ATOMS id type fx fy fz x y z radius mux muy muz 
2 1 2.37241e-21 1.66249e-20 -1.51636e-07 0 0 -2 1 0 3.04639 0 
1 1 -2.37241e-21 1.66249e-20 1.51636e-07 0 0 0 1 0 3.04639 0 
