ITEM: TIMESTEP
1
ITEM: NUMBER OF ATOMS
1
ITEM: BOX BOUNDS ff ff ff
-10 10
-10 10
-10 10
ITEM: ATOMS id type fx fy fz x y z radius mux muy muz 
3 1 -2.00423e-21 -1.03849e-20 -2.95878e-07 0 0 -3.3 1 0 0 3.18884 
