ITEM: TIMESTEP
2
ITEM: NUMBER OF ATOMS
1
ITEM: BOX BOUNDS ff ff ff
-10 10
-10 10
-10 10
ITEM: ATOMS id type fx fy fz x y z radius mux muy muz 
3 1 0 -2.74336e-07 -2.34928e-13 0 3.5 1 1 0 7.46976 1.56325e-06 
