ITEM: TIMESTEP
0
ITEM: NUMBER OF ATOMS
1
ITEM: BOX BOUNDS ff ff ff
-10 10
-10 10
-10 10
ITEM: ATOMS id type fx fy fz x y z radius mux muy muz 
3 1 5.26179e-21 -1.27723e-08 5.63109e-10 0 2.6 1 1 0 -0.000494623 3.09474 
