ITEM: TIMESTEP
2
ITEM: NUMBER OF ATOMS
3
ITEM: BOX BOUNDS ff ff ff
-10 10
-10 10
-10 10
ITEM: ATOMS id type fx fy fz x y z radius mux muy muz 
1 1 1.97396e-20 -3.94002e-09 4.77174e-07 0 0 0 1 0 0.0228053 3.3327 
3 1 8.97015e-21 7.7601e-09 3.82128e-10 0 3 1 1 0 -1.65758e-08 3.10503 
2 1 -6.38653e-21 -3.81699e-09 -4.95283e-07 0 0 2 1 0 -0.0228053 3.3327 
