ITEM: TIMESTEP
1
ITEM: NUMBER OF ATOMS
3
ITEM: BOX BOUNDS ff ff ff
-10 10
-10 10
-10 10
ITEM: ATOMS id type fx fy fz x y z radius mux muy muz 
1 1 -9.48792e-22 7.1214e-09 4.19447e-07 0 0 0 1 0 0.0370919 3.32769 
3 1 1.24881e-21 -1.43663e-08 3.90315e-10 0 2.6 1 1 0 4.86562e-06 3.09522 
2 1 1.4039e-20 7.2489e-09 -4.49538e-07 0 0 2 1 0 -0.0371399 3.32762 
