ITEM: TIMESTEP
1
ITEM: NUMBER OF ATOMS
1
ITEM: BOX BOUNDS ff ff ff
-10 10
-10 10
-10 10
ITEM: ATOMS id type fx fy fz x y z radius mux muy muz 
3 1 -1.85318e-20 4.71992e-09 3.83804e-10 0 2.9 1 1 0 2.21792e-06 3.10268 
