ITEM: TIMESTEP
3
ITEM: NUMBER OF ATOMS
3
ITEM: BOX BOUNDS ff ff ff
-10 10
-10 10
-10 10
ITEM: ATOMS id type fx fy fz x y z radius mux muy muz 
1 1 -3.18062e-21 -2.38945e-10 4.5287e-07 0 0 0 1 0 0.0289251 3.33025 
3 1 1.1982e-20 3.53733e-10 3.8414e-10 0 2.8 1 1 0 -1.7208e-10 3.10026 
2 1 -8.01693e-21 -1.11269e-10 -4.76104e-07 0 0 2 1 0 -0.0289251 3.33025 
