ITEM: TIMESTEP
0
ITEM: NUMBER OF ATOMS
3
ITEM: BOX BOUNDS ff ff ff
-10 10
-10 10
-10 10
ITEM: ATOMS id type fx fy fz x y z radius mux muy muz 
1 1 -1.68958e-20 -3.20804e-09 4.92986e-07 0 0 0 1 0 0.000801424 3.34981 
3 1 -4.26608e-21 8.38359e-09 4.27096e-10 0 3 1 1 0 -0.000203657 3.10481 
2 1 -7.01058e-21 -5.17307e-09 -4.99899e-07 0 0 2 1 0 -0.0221189 3.33378 
