ITEM: TIMESTEP
2
ITEM: NUMBER OF ATOMS
1
ITEM: BOX BOUNDS ff ff ff
-10 10
-10 10
-10 10
ITEM: ATOMS id type fx fy fz x y z radius mux muy muz 
3 1 1.60478e-20 -1.43686e-08 3.88665e-10 0 2.6 1 1 0 -2.43246e-08 3.09524 
