ITEM: TIMESTEP
3
ITEM: NUMBER OF ATOMS
1
ITEM: BOX BOUNDS ff ff ff
-10 10
-10 10
-10 10
ITEM: ATOMS id type fx fy fz x y z radius mux muy muz 
3 1 -2.69642e-20 1.23592e-08 3.81648e-10 0 3.4 1 1 0 -5.33972e-11 3.1132 
