ITEM: TIMESTEP
2
ITEM: NUMBER OF ATOMS
3
ITEM: BOX BOUNDS ff ff ff
-10 10
-10 10
-10 10
ITEM: ATOMS id type fx fy fz x y z radius mux muy muz 
1 1 1.84566e-20 -5.95625e-09 5.26104e-07 0 0 0 1 0 0.00979758 3.33998 
3 1 4.40117e-21 1.18105e-08 3.83003e-10 0 3.8 1 1 0 1.23946e-07 3.11947 
2 1 -3.06744e-20 -5.8523e-09 -5.33311e-07 0 0 2 1 0 -0.00979709 3.33998 
