ITEM: TIMESTEP
2
ITEM: NUMBER OF ATOMS
1
ITEM: BOX BOUNDS ff ff ff
-10 10
-10 10
-10 10
ITEM: ATOMS id type fx fy fz x y z radius mux muy muz 
3 1 8.97015e-21 7.7601e-09 3.82128e-10 0 3 1 1 0 -1.65758e-08 3.10503 
