ITEM: TIMESTEP
2
ITEM: NUMBER OF ATOMS
3
ITEM: BOX BOUNDS ff ff ff
-10 10
-10 10
-10 10
ITEM: ATOMS id type fx fy fz x y z radius mux muy muz 
1 1 -7.08199e-23 -3.66371e-09 5.45593e-07 0 0 0 1 0 0.00410379 3.34484 
3 1 4.3331e-21 7.24355e-09 3.87478e-10 0 4.8 1 1 0 -1.20971e-09 3.12918 
2 1 -1.57111e-20 -3.57865e-09 -5.48025e-07 0 0 2 1 0 -0.0041038 3.34484 
