ITEM: TIMESTEP
0
ITEM: NUMBER OF ATOMS
3
ITEM: BOX BOUNDS ff ff ff
-10 10
-10 10
-10 10
ITEM: ATOMS id type fx fy fz x y z radius mux muy muz 
1 1 -5.40902e-21 -3.84144e-09 5.47418e-07 0 0 0 1 0 0.000163545 3.35058 
3 1 -6.34968e-21 8.13087e-09 3.87159e-10 0 4.6 1 1 0 -1.24268e-05 3.12773 
2 1 -4.54679e-22 -4.28823e-09 -5.4807e-07 0 0 2 1 0 -0.00467309 3.34452 
