ITEM: TIMESTEP
2
ITEM: NUMBER OF ATOMS
3
ITEM: BOX BOUNDS ff ff ff
-10 10
-10 10
-10 10
ITEM: ATOMS id type fx fy fz x y z radius mux muy muz 
1 1 2.47652e-21 -3.87293e-09 5.44483e-07 0 0 0 1 0 0.00444347 3.34449 
3 1 -1.59985e-20 7.66043e-09 3.87063e-10 0 4.7 1 1 0 -1.38044e-09 3.12849 
2 1 -2.85943e-20 -3.78625e-09 -5.472e-07 0 0 2 1 0 -0.00444347 3.34449 
