ITEM: TIMESTEP
0
ITEM: NUMBER OF ATOMS
3
ITEM: BOX BOUNDS ff ff ff
-10 10
-10 10
-10 10
ITEM: ATOMS id type fx fy fz x y z radius mux muy muz 
1 1 1.65419e-20 -5.72309e-09 5.27503e-07 0 0 0 1 0 0.00041274 3.3502 
3 1 -2.79353e-21 1.25707e-08 3.89591e-10 0 3.6 1 1 0 -6.31593e-05 3.11648 
2 1 -1.30096e-21 -6.84572e-09 -5.30619e-07 0 0 2 1 0 -0.0115696 3.33925 
