ITEM: TIMESTEP
2
ITEM: NUMBER OF ATOMS
3
ITEM: BOX BOUNDS ff ff ff
-10 10
-10 10
-10 10
ITEM: ATOMS id type fx fy fz x y z radius mux muy muz 
1 1 4.35787e-21 1.30452e-08 3.98035e-07 0 0 0 1 0 0.042295 3.32627 
3 1 -2.50144e-20 -2.62187e-08 3.9245e-10 0 2.5 1 1 0 -2.33364e-08 3.09277 
2 1 1.91469e-20 1.31778e-08 -4.32465e-07 0 0 2 1 0 -0.0422953 3.32627 
