ITEM: TIMESTEP
0
ITEM: NUMBER OF ATOMS
3
ITEM: BOX BOUNDS ff ff ff
-10 10
-10 10
-10 10
ITEM: ATOMS id type fx fy fz x y z radius mux muy muz 
1 1 -4.39946e-21 -3.447e-09 5.49228e-07 0 0 0 1 0 0.000138859 3.35062 
3 1 -1.94379e-20 7.26923e-09 3.87793e-10 0 4.8 1 1 0 -9.3285e-06 3.12917 
2 1 9.05364e-21 -3.82113e-09 -5.49632e-07 0 0 2 1 0 -0.00397991 3.3452 
