ITEM: TIMESTEP
3
ITEM: NUMBER OF ATOMS
3
ITEM: BOX BOUNDS ff ff ff
-10 10
-10 10
-10 10
ITEM: ATOMS id type fx fy fz x y z radius mux muy muz 
1 1 -6.05585e-21 -4.31945e-09 5.41871e-07 0 0 0 1 0 0.00523342 3.34372 
3 1 7.83045e-21 8.55019e-09 3.862e-10 0 4.5 1 1 0 -9.32763e-12 3.12695 
2 1 -2.82573e-20 -4.22938e-09 -5.4525e-07 0 0 2 1 0 -0.00523342 3.34372 
