ITEM: TIMESTEP
1
ITEM: NUMBER OF ATOMS
1
ITEM: BOX BOUNDS ff ff ff
-10 10
-10 10
-10 10
ITEM: ATOMS id type fx fy fz x y z radius mux muy muz 
3 1 1.33358e-20 3.55178e-10 3.85244e-10 0 2.8 1 1 0 2.8646e-06 3.10025 
