ITEM: TIMESTEP
0
ITEM: NUMBER OF ATOMS
3
ITEM: BOX BOUNDS ff ff ff
-10 10
-10 10
-10 10
ITEM: ATOMS id type fx fy fz x y z radius mux muy muz 
1 1 2.05984e-20 4.70086e-08 3.44455e-07 0 0 0 1 0 0.0023033 3.34921 
3 1 2.3919e-20 -9.12418e-08 1.21656e-09 0 2.2 1 1 0 -0.00133311 3.08565 
2 1 5.26355e-21 4.42359e-08 -3.6629e-07 0 0 2 1 0 -0.06188 3.32436 
