ITEM: TIMESTEP
2
ITEM: NUMBER OF ATOMS
3
ITEM: BOX BOUNDS ff ff ff
-10 10
-10 10
-10 10
ITEM: ATOMS id type fx fy fz x y z radius mux muy muz 
1 1 -4.67387e-21 -6.03365e-09 5.02191e-07 0 0 0 1 0 0.0163063 3.3359 
3 1 3.37221e-20 1.19542e-08 3.81505e-10 0 3.3 1 1 0 -1.06644e-08 3.11134 
2 1 1.38284e-20 -5.91802e-09 -5.14854e-07 0 0 2 1 0 -0.0163063 3.3359 
