ITEM: TIMESTEP
2
ITEM: NUMBER OF ATOMS
1
ITEM: BOX BOUNDS ff ff ff
-10 10
-10 10
-10 10
ITEM: ATOMS id type fx fy fz x y z radius mux muy muz 
3 1 -2.50144e-20 -2.62187e-08 3.9245e-10 0 2.5 1 1 0 -2.33364e-08 3.09277 
