ITEM: TIMESTEP
3
ITEM: NUMBER OF ATOMS
3
ITEM: BOX BOUNDS ff ff ff
-10 10
-10 10
-10 10
ITEM: ATOMS id type fx fy fz x y z radius mux muy muz 
1 1 9.20617e-21 -4.55488e-09 5.40332e-07 0 0 0 1 0 0.00569325 3.3433 
3 1 -1.05142e-20 9.01932e-09 3.85752e-10 0 4.4 1 1 0 -1.07583e-11 3.1261 
2 1 2.8102e-21 -4.46302e-09 -5.44097e-07 0 0 2 1 0 -0.00569325 3.3433 
