ITEM: TIMESTEP
0
ITEM: NUMBER OF ATOMS
3
ITEM: BOX BOUNDS ff ff ff
-10 10
-10 10
-10 10
ITEM: ATOMS id type fx fy fz x y z radius mux muy muz 
1 1 -1.59896e-20 -4.26501e-09 5.45143e-07 0 0 0 1 0 0.000193871 3.35052 
3 1 2.05548e-20 9.06603e-09 3.86619e-10 0 4.4 1 1 0 -1.67457e-05 3.12607 
2 1 -1.39775e-20 -4.79972e-09 -5.46098e-07 0 0 2 1 0 -0.00552144 3.34375 
