ITEM: TIMESTEP
1
ITEM: NUMBER OF ATOMS
3
ITEM: BOX BOUNDS ff ff ff
-10 10
-10 10
-10 10
ITEM: ATOMS id type fx fy fz x y z radius mux muy muz 
1 1 8.11897e-21 -4.96865e-09 4.86812e-07 0 0 0 1 0 0.0203152 3.3339 
3 1 5.46766e-20 9.82152e-09 3.82284e-10 0 3.1 1 1 0 1.35366e-06 3.10725 
2 1 1.34396e-21 -4.84998e-09 -5.02841e-07 0 0 2 1 0 -0.0203368 3.33384 
