ITEM: TIMESTEP
1
ITEM: NUMBER OF ATOMS
3
ITEM: BOX BOUNDS ff ff ff
-10 10
-10 10
-10 10
ITEM: ATOMS id type fx fy fz x y z radius mux muy muz 
1 1 1.01608e-22 2.12057e-08 3.72804e-07 0 0 0 1 0 0.0482549 3.32504 
3 1 1.5974e-20 -4.25342e-08 4.00195e-10 0 2.4 1 1 0 8.45943e-06 3.09041 
2 1 7.48747e-21 2.13331e-08 -4.1225e-07 0 0 2 1 0 -0.0483268 3.32496 
