ITEM: TIMESTEP
1
ITEM: NUMBER OF ATOMS
1
ITEM: BOX BOUNDS ff ff ff
-10 10
-10 10
-10 10
ITEM: ATOMS id type fx fy fz x y z radius mux muy muz 
3 1 -1.47112e-21 -5.7968e-09 3.87341e-10 0 2.7 1 1 0 3.7222e-06 3.09774 
