ITEM: TIMESTEP
3
ITEM: NUMBER OF ATOMS
3
ITEM: BOX BOUNDS ff ff ff
-10 10
-10 10
-10 10
ITEM: ATOMS id type fx fy fz x y z radius mux muy muz 
1 1 -1.06038e-20 -5.52441e-09 5.32038e-07 0 0 0 1 0 0.00811374 3.34125 
3 1 1.39637e-20 1.09509e-08 3.83909e-10 0 4 1 1 0 -1.95947e-11 3.12201 
2 1 -2.62164e-20 -5.42478e-09 -5.37834e-07 0 0 2 1 0 -0.00811374 3.34125 
