ITEM: TIMESTEP
1
ITEM: NUMBER OF ATOMS
1
ITEM: BOX BOUNDS ff ff ff
-10 10
-10 10
-10 10
ITEM: ATOMS id type fx fy fz x y z radius mux muy muz 
3 1 2.96505e-20 -6.49785e-08 4.08082e-10 0 2.3 1 1 0 1.12437e-05 3.08837 
