ITEM: TIMESTEP
2
ITEM: NUMBER OF ATOMS
3
ITEM: BOX BOUNDS ff ff ff
-10 10
-10 10
-10 10
ITEM: ATOMS id type fx fy fz x y z radius mux muy muz 
1 1 2.15795e-20 -6.23499e-09 5.08374e-07 0 0 0 1 0 0.0146575 3.33684 
3 1 1.00152e-20 1.23592e-08 3.81649e-10 0 3.4 1 1 0 -9.15064e-09 3.1132 
2 1 4.08278e-21 -6.1218e-09 -5.19655e-07 0 0 2 1 0 -0.0146575 3.33684 
