ITEM: TIMESTEP
0
ITEM: NUMBER OF ATOMS
1
ITEM: BOX BOUNDS ff ff ff
-10 10
-10 10
-10 10
ITEM: ATOMS id type fx fy fz x y z radius mux muy muz 
3 1 6.17064e-21 -4.2092e-22 1.58085e-07 0 0 -3.2 1 0 3.11855 0 
