ITEM: TIMESTEP
1
ITEM: NUMBER OF ATOMS
2
ITEM: BOX BOUNDS ff ff ff
-10 10
-10 10
-10 10
ITEM: ATOMS id type fx fy fz x y z radius mux muy muz 
2 1 2.40252e-21 -2.91596e-21 1.03817e-07 0 0 -2.8 1 0 0 3.21482 
1 1 -4.23347e-22 -2.93904e-21 -1.03749e-07 0 0 0 1 0 0 3.21482 
