ITEM: TIMESTEP
1
ITEM: NUMBER OF ATOMS
2
ITEM: BOX BOUNDS ff ff ff
-10 10
-10 10
-10 10
ITEM: ATOMS id type fx fy fz x y z radius mux muy muz 
2 1 9.67066e-22 -7.8445e-21 5.90248e-08 0 0 -3.2 1 0 0 3.19027 
1 1 -4.34767e-22 2.96574e-21 -5.89898e-08 0 0 0 1 0 0 3.19027 
