ITEM: TIMESTEP
1
ITEM: NUMBER OF ATOMS
2
ITEM: BOX BOUNDS ff ff ff
-10 10
-10 10
-10 10
ITEM: ATOMS id type fx fy fz x y z radius mux muy muz 
2 1 5.84051e-21 1.19188e-20 4.59023e-08 0 0 -3.4 1 0 0 3.18207 
1 1 -7.60064e-22 -6.31035e-22 -4.5876e-08 0 0 0 1 0 0 3.18207 
