ITEM: TIMESTEP
0
ITEM: NUMBER OF ATOMS
2
ITEM: BOX BOUNDS ff ff ff
-10 10
-10 10
-10 10
ITEM: ATOMS id type fx fy fz x y z radius mux muy muz 
2 1 -8.66178e-22 -6.38891e-21 6.74022e-08 0 0 -3.1 1 0 0 3.19531 
1 1 3.44499e-22 5.71268e-21 -6.73615e-08 0 0 0 1 0 0 3.19522 
