ITEM: TIMESTEP
2
ITEM: NUMBER OF ATOMS
2
ITEM: BOX BOUNDS ff ff ff
-10 10
-10 10
-10 10
ITEM: ATOMS id type fx fy fz x y z radius mux muy muz 
2 1 -4.36041e-21 3.50263e-21 5.19378e-08 0 0 -3.3 1 0 0 3.18592 
1 1 -5.93385e-22 -8.9725e-23 -5.19075e-08 0 0 0 1 0 0 3.18592 
