ITEM: TIMESTEP
0
ITEM: NUMBER OF ATOMS
2
ITEM: BOX BOUNDS ff ff ff
-10 10
-10 10
-10 10
ITEM: ATOMS id type fx fy fz x y z radius mux muy muz 
2 1 6.66388e-22 -1.8119e-20 2.35933e-08 0 0 -4 1 0 0 3.16634 
1 1 -8.08284e-22 5.63137e-21 -2.35808e-08 0 0 0 1 0 0 3.16633 
