ITEM: TIMESTEP
0
ITEM: NUMBER OF ATOMS
2
ITEM: BOX BOUNDS ff ff ff
-10 10
-10 10
-10 10
ITEM: ATOMS id type fx fy fz x y z radius mux muy muz 
2 1 -2.86813e-22 3.59555e-21 1.21558e-07 0 0 -2.7 1 0 0 3.22373 
1 1 4.81744e-23 -5.61e-21 -1.21476e-07 0 0 0 1 0 0 3.22348 
