ITEM: TIMESTEP
0
ITEM: NUMBER OF ATOMS
2
ITEM: BOX BOUNDS ff ff ff
-10 10
-10 10
-10 10
ITEM: ATOMS id type fx fy fz x y z radius mux muy muz 
2 1 -3.36566e-21 -2.89889e-20 2.61552e-08 0 0 -3.9 1 0 0 3.16832 
1 1 -2.9439e-22 -2.70941e-21 -2.61412e-08 0 0 0 1 0 0 3.1683 
