ITEM: TIMESTEP
1
ITEM: NUMBER OF ATOMS
2
ITEM: BOX BOUNDS ff ff ff
-10 10
-10 10
-10 10
ITEM: ATOMS id type fx fy fz x y z radius mux muy muz 
2 1 -9.92214e-22 1.41554e-20 3.24275e-08 0 0 -3.7 1 0 0 3.17291 
1 1 3.67157e-22 -2.26282e-21 -3.24097e-08 0 0 0 1 0 0 3.17291 
