ITEM: TIMESTEP
1
ITEM: NUMBER OF ATOMS
2
ITEM: BOX BOUNDS ff ff ff
-10 10
-10 10
-10 10
ITEM: ATOMS id type fx fy fz x y z radius mux muy muz 
2 1 2.05445e-21 -2.78298e-20 6.74002e-08 0 0 -3.1 1 0 0 3.19522 
1 1 -1.04812e-21 -2.95209e-21 -6.73594e-08 0 0 0 1 0 0 3.19522 
