ITEM: TIMESTEP
2
ITEM: NUMBER OF ATOMS
2
ITEM: BOX BOUNDS ff ff ff
-10 10
-10 10
-10 10
ITEM: ATOMS id type fx fy fz x y z radius mux muy muz 
2 1 1.20519e-22 1.44052e-20 1.71202e-07 0 0 -2.5 1 0 0 3.24545 
1 1 -2.05076e-22 9.68382e-21 -1.71077e-07 0 0 0 1 0 0 3.24545 
