ITEM: TIMESTEP
1
ITEM: NUMBER OF ATOMS
2
ITEM: BOX BOUNDS ff ff ff
-10 10
-10 10
-10 10
ITEM: ATOMS id type fx fy fz x y z radius mux muy muz 
2 1 1.31753e-21 -1.18309e-21 2.35932e-08 0 0 -4 1 0 0 3.16633 
1 1 -2.16598e-22 -1.39723e-21 -2.35806e-08 0 0 0 1 0 0 3.16633 
