ITEM: TIMESTEP
4
ITEM: NUMBER OF ATOMS
4000
ITEM: BOX BOUNDS ff ff ff
-5 5
-5 5
-5 5
ITEM: ATOMS id type fx fy fz x y z radius mux muy muz 
1 1 1.92096e-14 1.92096e-14 -3.83187e-14 -5 -5 -5 0.05 5.2068e-08 5.2068e-08 0.000392699 
2 1 -4.62382e-14 -4.62382e-14 -1.69082e-13 -4.5 -4.5 -5 0.05 -1.62817e-12 -1.62817e-12 0.00039263 
3 1 -4.63018e-14 8.46037e-14 9.24854e-14 -4.5 -5 -4.5 0.05 4.6007e-12 3.24964e-12 0.000392734 
4 1 8.46037e-14 -4.63018e-14 9.24854e-14 -5 -4.5 -4.5 0.05 3.24964e-12 4.6007e-12 0.000392734 
5 1 1.4419e-18 -1.11642e-13 -1.0375e-13 -4 -5 -5 0.05 1.62635e-12 5.20602e-08 0.000392669 
8 1 1.45484e-18 -4.63098e-14 9.24418e-14 -4 -4.5 -4.5 0.05 -1.0662e-15 4.59841e-12 0.000392687 
6 1 1.44416e-18 -4.62237e-14 -1.69103e-13 -3.5 -4.5 -5 0.05 3.80609e-16 -1.62926e-12 0.000392617 
7 1 1.44588e-18 8.46058e-14 9.25027e-14 -3.5 -5 -4.5 0.05 2.15609e-16 3.24935e-12 0.000392722 
9 1 -1.08677e-22 -1.11638e-13 -1.03754e-13 -3 -5 -5 0.05 1.52501e-16 5.20602e-08 0.000392669 
12 1 -1.73393e-22 -4.63098e-14 9.24418e-14 -3 -4.5 -4.5 0.05 3.14379e-20 4.59841e-12 0.000392687 
10 1 -4.509e-23 -4.62237e-14 -1.69103e-13 -2.5 -4.5 -5 0.05 2.21809e-20 -1.62926e-12 0.000392617 
11 1 -4.52457e-23 8.46058e-14 9.25027e-14 -2.5 -5 -4.5 0.05 2.68772e-20 3.24935e-12 0.000392722 
13 1 5.41378e-27 -1.11638e-13 -1.03754e-13 -2 -5 -5 0.05 8.13302e-21 5.20602e-08 0.000392669 
16 1 9.46623e-27 -4.63098e-14 9.24418e-14 -2 -4.5 -4.5 0.05 1.97929e-22 4.59841e-12 0.000392687 
14 1 1.41364e-27 -4.62237e-14 -1.69103e-13 -1.5 -4.5 -5 0.05 -1.71134e-22 -1.62926e-12 0.000392617 
15 1 1.41361e-27 8.46058e-14 9.25027e-14 -1.5 -5 -4.5 0.05 1.74349e-22 3.24935e-12 0.000392722 
17 1 9.47578e-29 -1.11638e-13 -1.03754e-13 -1 -5 -5 0.05 -4.01311e-22 5.20602e-08 0.000392669 
20 1 -1.76424e-28 -4.63098e-14 9.24418e-14 -1 -4.5 -4.5 0.05 -4.61354e-22 4.59841e-12 0.000392687 
18 1 2.65049e-27 -4.62237e-14 -1.69103e-13 -0.5 -4.5 -5 0.05 7.29267e-22 -1.62926e-12 0.000392617 
19 1 -7.0683e-28 8.46058e-14 9.25027e-14 -0.5 -5 -4.5 0.05 2.21726e-23 3.24935e-12 0.000392722 
21 1 -1.11642e-13 1.4419e-18 -1.0375e-13 -5 -4 -5 0.05 5.20602e-08 1.62635e-12 0.000392669 
23 1 -4.63098e-14 1.45484e-18 9.24418e-14 -4.5 -4 -4.5 0.05 4.59841e-12 -1.0662e-15 0.000392687 
25 1 9.61416e-18 9.61416e-18 -1.69115e-13 -4 -4 -5 0.05 1.62598e-12 1.62598e-12 0.000392605 
27 1 1.44681e-18 1.45779e-18 9.24592e-14 -3.5 -4 -4.5 0.05 2.15592e-16 -1.06602e-15 0.000392675 
29 1 -4.91628e-22 9.61263e-18 -1.69119e-13 -3 -4 -5 0.05 1.52481e-16 1.62598e-12 0.000392605 
31 1 -4.52957e-23 1.45779e-18 9.24592e-14 -2.5 -4 -4.5 0.05 2.69336e-20 -1.06602e-15 0.000392675 
33 1 2.13803e-26 9.61263e-18 -1.69119e-13 -2 -4 -5 0.05 7.95171e-21 1.62598e-12 0.000392605 
35 1 1.41351e-27 1.45779e-18 9.24592e-14 -1.5 -4 -4.5 0.05 1.79951e-22 -1.06602e-15 0.000392675 
37 1 3.02931e-28 9.61263e-18 -1.69119e-13 -1 -4 -5 0.05 6.96578e-23 1.62598e-12 0.000392605 
39 1 -2.95455e-27 1.45779e-18 9.24592e-14 -0.5 -4 -4.5 0.05 1.56905e-21 -1.06602e-15 0.000392675 
22 1 -4.62237e-14 1.44416e-18 -1.69103e-13 -4.5 -3.5 -5 0.05 -1.62926e-12 3.80609e-16 0.000392617 
24 1 8.46058e-14 1.44588e-18 9.25027e-14 -5 -3.5 -4.5 0.05 3.24935e-12 2.15609e-16 0.000392722 
28 1 1.45779e-18 1.44681e-18 9.24592e-14 -4 -3.5 -4.5 0.05 -1.06602e-15 2.15592e-16 0.000392675 
26 1 1.44294e-18 1.44294e-18 -1.69123e-13 -3.5 -3.5 -5 0.05 3.80592e-16 3.80592e-16 0.000392605 
32 1 -1.73715e-22 1.44681e-18 9.24592e-14 -3 -3.5 -4.5 0.05 3.13397e-20 2.15592e-16 0.000392675 
30 1 -4.50167e-23 1.44294e-18 -1.69123e-13 -2.5 -3.5 -5 0.05 2.23243e-20 3.80592e-16 0.000392605 
36 1 9.44106e-27 1.44681e-18 9.24592e-14 -2 -3.5 -4.5 0.05 4.75638e-23 2.15592e-16 0.000392675 
34 1 1.3884e-27 1.44294e-18 -1.69123e-13 -1.5 -3.5 -5 0.05 -1.17816e-22 3.80591e-16 0.000392605 
40 1 -2.27257e-28 1.44681e-18 9.24592e-14 -1 -3.5 -4.5 0.05 1.90672e-22 2.15592e-16 0.000392675 
38 1 5.27567e-27 1.44294e-18 -1.69123e-13 -0.5 -3.5 -5 0.05 1.23304e-21 3.80592e-16 0.000392605 
41 1 -1.11638e-13 -1.08677e-22 -1.03754e-13 -5 -3 -5 0.05 5.20602e-08 1.52501e-16 0.000392669 
43 1 -4.63098e-14 -1.73393e-22 9.24418e-14 -4.5 -3 -4.5 0.05 4.59841e-12 3.16123e-20 0.000392687 
45 1 9.61263e-18 -4.91628e-22 -1.69119e-13 -4 -3 -5 0.05 1.62598e-12 1.52481e-16 0.000392605 
47 1 1.44681e-18 -1.73715e-22 9.24592e-14 -3.5 -3 -4.5 0.05 2.15592e-16 3.13659e-20 0.000392675 
49 1 -4.91465e-22 -4.91465e-22 -1.69123e-13 -3 -3 -5 0.05 1.52481e-16 1.52481e-16 0.000392605 
51 1 -4.52956e-23 -1.73714e-22 9.24592e-14 -2.5 -3 -4.5 0.05 2.69073e-20 3.14065e-20 0.000392675 
53 1 2.13299e-26 -4.91465e-22 -1.69123e-13 -2 -3 -5 0.05 8.02907e-21 1.52481e-16 0.000392605 
55 1 1.41347e-27 -1.73714e-22 9.24592e-14 -1.5 -3 -4.5 0.05 2.41153e-22 3.15157e-20 0.000392675 
57 1 3.28157e-28 -4.91465e-22 -1.69123e-13 -1 -3 -5 0.05 1.28982e-22 1.52481e-16 0.000392605 
59 1 -2.22244e-27 -1.73714e-22 9.24592e-14 -0.5 -3 -4.5 0.05 1.5251e-21 3.18022e-20 0.000392675 
42 1 -4.62237e-14 -4.509e-23 -1.69103e-13 -4.5 -2.5 -5 0.05 -1.62926e-12 2.21005e-20 0.000392617 
44 1 8.46058e-14 -4.52457e-23 9.25027e-14 -5 -2.5 -4.5 0.05 3.24935e-12 2.68927e-20 0.000392722 
48 1 1.45779e-18 -4.52957e-23 9.24592e-14 -4 -2.5 -4.5 0.05 -1.06602e-15 2.69203e-20 0.000392675 
46 1 1.44294e-18 -4.50167e-23 -1.69123e-13 -3.5 -2.5 -5 0.05 3.80592e-16 2.2186e-20 0.000392605 
52 1 -1.73714e-22 -4.52957e-23 9.24592e-14 -3 -2.5 -4.5 0.05 3.13064e-20 2.69989e-20 0.000392675 
50 1 -4.50167e-23 -4.50166e-23 -1.69123e-13 -2.5 -2.5 -5 0.05 2.22948e-20 2.21749e-20 0.000392605 
56 1 9.49154e-27 -4.52957e-23 9.24592e-14 -2 -2.5 -4.5 0.05 7.38657e-23 2.68725e-20 0.000392675 
54 1 1.3884e-27 -4.50166e-23 -1.69123e-13 -1.5 -2.5 -5 0.05 -1.78926e-22 2.20136e-20 0.000392605 
60 1 -2.02065e-28 -4.52957e-23 9.24592e-14 -1 -2.5 -4.5 0.05 2.54878e-22 2.67089e-20 0.000392675 
58 1 5.2252e-27 -4.50165e-23 -1.69123e-13 -0.5 -2.5 -5 0.05 1.16823e-21 2.23954e-20 0.000392605 
61 1 -1.11638e-13 5.41378e-27 -1.03754e-13 -5 -2 -5 0.05 5.20602e-08 8.14552e-21 0.000392669 
63 1 -4.63098e-14 9.46628e-27 9.24418e-14 -4.5 -2 -4.5 0.05 4.59841e-12 2.29209e-22 0.000392687 
65 1 9.61263e-18 2.1374e-26 -1.69119e-13 -4 -2 -5 0.05 1.62598e-12 7.85337e-21 0.000392605 
67 1 1.44681e-18 9.44105e-27 9.24592e-14 -3.5 -2 -4.5 0.05 2.15592e-16 1.6457e-22 0.000392675 
69 1 -4.91465e-22 2.13298e-26 -1.69123e-13 -3 -2 -5 0.05 1.52481e-16 8.04852e-21 0.000392605 
71 1 -4.52956e-23 9.49153e-27 9.24592e-14 -2.5 -2 -4.5 0.05 2.69038e-20 1.78674e-22 0.000392675 
73 1 2.12794e-26 2.12857e-26 -1.69123e-13 -2 -2 -5 0.05 7.96538e-21 8.09409e-21 0.000392605 
75 1 1.43863e-27 9.46628e-27 9.24592e-14 -1.5 -2 -4.5 0.05 2.35839e-22 3.20995e-22 0.000392675 
77 1 3.78632e-28 2.12352e-26 -1.69123e-13 -1 -2 -5 0.05 1.60106e-22 7.70912e-21 0.000392605 
79 1 -2.17195e-27 9.64295e-27 9.24592e-14 -0.5 -2 -4.5 0.05 1.59154e-21 5.02434e-22 0.000392675 
62 1 -4.62237e-14 1.40731e-27 -1.69103e-13 -4.5 -1.5 -5 0.05 -1.62926e-12 -1.0867e-22 0.000392617 
64 1 8.46058e-14 1.41362e-27 9.25027e-14 -5 -1.5 -4.5 0.05 3.24935e-12 9.15171e-23 0.000392722 
68 1 1.45779e-18 1.41366e-27 9.24592e-14 -4 -1.5 -4.5 0.05 -1.06602e-15 -1.26242e-22 0.000392675 
66 1 1.44294e-18 1.42e-27 -1.69123e-13 -3.5 -1.5 -5 0.05 3.80592e-16 -1.72363e-22 0.000392605 
72 1 -1.73714e-22 1.41364e-27 9.24592e-14 -3 -1.5 -4.5 0.05 3.15063e-20 -8.89383e-24 0.000392675 
70 1 -4.50167e-23 1.41995e-27 -1.69123e-13 -2.5 -1.5 -5 0.05 2.21316e-20 -3.59237e-23 0.000392605 
76 1 9.46616e-27 1.4389e-27 9.24592e-14 -2 -1.5 -4.5 0.05 2.70315e-22 -7.57454e-23 0.000392675 
74 1 1.41362e-27 1.41993e-27 -1.69123e-13 -1.5 -1.5 -5 0.05 -2.86054e-22 -1.88707e-22 0.000392605 
80 1 -1.76404e-28 1.439e-27 9.24592e-14 -1 -1.5 -4.5 0.05 -1.44947e-22 -7.91489e-22 0.000392675 
78 1 4.92227e-27 1.11707e-27 -1.69123e-13 -0.5 -1.5 -5 0.05 1.34337e-21 1.51353e-22 0.000392605 
81 1 -1.11638e-13 9.4732e-29 -1.03754e-13 -5 -1 -5 0.05 5.20602e-08 -1.82172e-22 0.000392669 
83 1 -4.63098e-14 -1.76666e-28 9.24418e-14 -4.5 -1 -4.5 0.05 4.59841e-12 -9.36673e-23 0.000392687 
85 1 9.61263e-18 3.21852e-28 -1.69119e-13 -4 -1 -5 0.05 1.62598e-12 1.06616e-22 0.000392605 
87 1 1.44681e-18 -1.51375e-28 9.24592e-14 -3.5 -1 -4.5 0.05 2.15592e-16 -2.55112e-22 0.000392675 
89 1 -4.91465e-22 3.47172e-28 -1.69123e-13 -3 -1 -5 0.05 1.52481e-16 -1.48255e-22 0.000392605 
91 1 -4.52956e-23 -1.51368e-28 9.24592e-14 -2.5 -1 -4.5 0.05 2.69122e-20 -2.51832e-22 0.000392675 
93 1 2.12289e-26 3.85028e-28 -1.69123e-13 -2 -1 -5 0.05 7.99285e-21 -1.8657e-22 0.000392605 
95 1 1.43913e-27 -1.51312e-28 9.24592e-14 -1.5 -1 -4.5 0.05 -1.84653e-22 -6.38098e-22 0.000392675 
97 1 2.77711e-28 2.84146e-28 -1.69123e-13 -1 -1 -5 0.05 3.89725e-22 2.99946e-23 0.000392605 
99 1 -2.11059e-30 1.23676e-27 9.24592e-14 -0.5 -1 -4.5 0.05 2.34728e-21 1.57097e-21 0.000392675 
82 1 -4.62237e-14 2.95331e-27 -1.69103e-13 -4.5 -0.5 -5 0.05 -1.62926e-12 1.04753e-21 0.000392617 
84 1 8.46058e-14 -7.57342e-28 9.25027e-14 -5 -0.5 -4.5 0.05 3.24935e-12 1.10462e-22 0.000392722 
88 1 1.45779e-18 -2.22179e-27 9.24592e-14 -4 -0.5 -4.5 0.05 -1.06602e-15 1.89426e-21 0.000392675 
86 1 1.44294e-18 5.04845e-27 -1.69123e-13 -3.5 -0.5 -5 0.05 3.80591e-16 1.09218e-21 0.000392605 
92 1 -1.73714e-22 -1.46447e-27 9.24592e-14 -3 -0.5 -4.5 0.05 3.16733e-20 1.79081e-21 0.000392675 
90 1 -4.50165e-23 5.07369e-27 -1.69123e-13 -2.5 -0.5 -5 0.05 2.23437e-20 1.07948e-21 0.000392605 
96 1 9.54931e-27 -1.71693e-27 9.24592e-14 -2 -0.5 -4.5 0.05 2.16258e-22 1.88775e-21 0.000392675 
94 1 1.08551e-27 4.89699e-27 -1.69123e-13 -1.5 -0.5 -5 0.05 2.66512e-22 1.26181e-21 0.000392605 
100 1 1.24895e-27 -4.04165e-28 9.24592e-14 -1 -0.5 -4.5 0.05 1.80741e-21 2.21361e-21 0.000392675 
98 1 7.19394e-27 7.97643e-27 -1.69123e-13 -0.5 -0.5 -5 0.05 9.07168e-22 1.19969e-21 0.000392605 
101 1 2.15516e-13 2.15516e-13 5.78991e-18 -5 -5 -4 0.05 1.62674e-12 1.62674e-12 0.000392758 
102 1 -4.62953e-14 -4.62953e-14 5.77844e-18 -4.5 -4.5 -4 0.05 -7.8739e-16 -7.8739e-16 0.000392724 
105 1 -6.73805e-18 8.45939e-14 5.78089e-18 -4 -5 -4 0.05 1.06749e-15 1.62634e-12 0.000392746 
106 1 1.44767e-18 -4.62809e-14 5.77482e-18 -3.5 -4.5 -4 0.05 -2.64135e-19 -7.87475e-16 0.000392711 
109 1 2.1022e-22 8.4598e-14 5.78172e-18 -3 -5 -4 0.05 7.13292e-20 1.62634e-12 0.000392746 
110 1 -4.52706e-23 -4.62809e-14 5.77482e-18 -2.5 -4.5 -4 0.05 -7.77418e-23 -7.87474e-16 0.000392711 
113 1 -6.48759e-27 8.4598e-14 5.78172e-18 -2 -5 -4 0.05 1.94819e-23 1.62634e-12 0.000392746 
114 1 1.43878e-27 -4.62809e-14 5.77482e-18 -1.5 -4.5 -4 0.05 1.55152e-22 -7.87474e-16 0.000392711 
117 1 -5.03958e-29 8.4598e-14 5.78172e-18 -1 -5 -4 0.05 -4.009e-22 1.62634e-12 0.000392746 
118 1 2.01618e-28 -4.62809e-14 5.77482e-18 -0.5 -4.5 -4 0.05 -3.76434e-24 -7.87474e-16 0.000392711 
121 1 8.45939e-14 -6.73805e-18 5.78089e-18 -5 -4 -4 0.05 1.62634e-12 1.06749e-15 0.000392746 
125 1 1.44383e-18 1.44383e-18 5.76953e-18 -4 -4 -4 0.05 1.06714e-15 1.06714e-15 0.000392699 
129 1 -1.73278e-22 1.4423e-18 5.77036e-18 -3 -4 -4 0.05 7.13304e-20 1.06714e-15 0.000392699 
133 1 9.41584e-27 1.4423e-18 5.77036e-18 -2 -4 -4 0.05 8.31454e-24 1.06714e-15 0.000392699 
137 1 8.15877e-32 1.4423e-18 5.77036e-18 -1 -4 -4 0.05 -1.3739e-22 1.06714e-15 0.000392699 
122 1 -4.62809e-14 1.44767e-18 5.77482e-18 -4.5 -3.5 -4 0.05 -7.87474e-16 -2.64051e-19 0.000392711 
126 1 1.44645e-18 1.44645e-18 5.77119e-18 -3.5 -3.5 -4 0.05 -2.64024e-19 -2.64229e-19 0.000392699 
130 1 -4.51972e-23 1.44645e-18 5.77119e-18 -2.5 -3.5 -4 0.05 -1.37599e-23 -2.64162e-19 0.000392699 
134 1 1.41353e-27 1.44645e-18 5.77119e-18 -1.5 -3.5 -4 0.05 1.10908e-22 -2.64171e-19 0.000392699 
138 1 -1.77364e-28 1.44645e-18 5.77119e-18 -0.5 -3.5 -4 0.05 7.1948e-22 -2.64179e-19 0.000392699 
141 1 8.4598e-14 2.1022e-22 5.78172e-18 -5 -3 -4 0.05 1.62634e-12 7.13546e-20 0.000392746 
145 1 1.4423e-18 -1.73278e-22 5.77036e-18 -4 -3 -4 0.05 1.06714e-15 7.14237e-20 0.000392699 
149 1 -1.73115e-22 -1.73115e-22 5.77119e-18 -3 -3 -4 0.05 7.13699e-20 7.14162e-20 0.000392699 
153 1 9.41583e-27 -1.73115e-22 5.77119e-18 -2 -3 -4 0.05 8.14545e-24 7.1356e-20 0.000392699 
157 1 -1.00935e-28 -1.73115e-22 5.77119e-18 -1 -3 -4 0.05 -4.81683e-23 7.11992e-20 0.000392699 
142 1 -4.62809e-14 -4.52706e-23 5.77482e-18 -4.5 -2.5 -4 0.05 -7.87474e-16 3.60894e-23 0.000392711 
146 1 1.44645e-18 -4.51972e-23 5.77119e-18 -3.5 -2.5 -4 0.05 -2.64029e-19 -1.27677e-22 0.000392699 
150 1 -4.51972e-23 -4.51972e-23 5.77119e-18 -2.5 -2.5 -4 0.05 -2.53112e-23 -6.06329e-23 0.000392699 
154 1 1.41354e-27 -4.51972e-23 5.77119e-18 -1.5 -2.5 -4 0.05 1.45681e-22 -9.73778e-23 0.000392699 
158 1 -7.8325e-28 -4.51974e-23 5.77119e-18 -0.5 -2.5 -4 0.05 6.95936e-22 -3.32148e-23 0.000392699 
161 1 8.4598e-14 -6.4876e-27 5.78172e-18 -5 -2 -4 0.05 1.62634e-12 3.95136e-23 0.000392746 
165 1 1.4423e-18 9.39056e-27 5.77036e-18 -4 -2 -4 0.05 1.06714e-15 1.44634e-22 0.000392699 
169 1 -1.73115e-22 9.4158e-27 5.77119e-18 -3 -2 -4 0.05 7.13705e-20 2.25681e-22 0.000392699 
173 1 9.54208e-27 9.51679e-27 5.77119e-18 -2 -2 -4 0.05 -4.56402e-24 1.25745e-22 0.000392699 
177 1 -1.00946e-28 9.54203e-27 5.77119e-18 -1 -2 -4 0.05 2.04144e-23 2.16649e-22 0.000392699 
162 1 -4.62809e-14 1.38835e-27 5.77482e-18 -4.5 -1.5 -4 0.05 -7.87474e-16 2.23579e-22 0.000392711 
166 1 1.44645e-18 1.43894e-27 5.77119e-18 -3.5 -1.5 -4 0.05 -2.63921e-19 -2.36109e-22 0.000392699 
170 1 -4.51971e-23 1.41364e-27 5.77119e-18 -2.5 -1.5 -4 0.05 -7.00607e-23 2.34059e-23 0.000392699 
174 1 1.41337e-27 1.41357e-27 5.77119e-18 -1.5 -1.5 -4 0.05 4.12123e-22 3.2321e-22 0.000392699 
178 1 -2.2218e-27 -2.51156e-29 5.77119e-18 -0.5 -1.5 -4 0.05 5.46716e-22 -4.98936e-22 0.000392699 
181 1 8.4598e-14 -5.03935e-29 5.78172e-18 -5 -1 -4 0.05 1.62634e-12 -4.00852e-22 0.000392746 
185 1 1.4423e-18 -2.52207e-29 5.77036e-18 -4 -1 -4 0.05 1.06714e-15 -8.19496e-23 0.000392699 
189 1 -1.73115e-22 -1.26106e-28 5.77119e-18 -3 -1 -4 0.05 7.13628e-20 -4.69524e-22 0.000392699 
193 1 9.54192e-27 -5.04028e-29 5.77119e-18 -2 -1 -4 0.05 1.60171e-22 -3.52339e-22 0.000392699 
197 1 -4.54139e-28 -4.54068e-28 5.77119e-18 -1 -1 -4 0.05 -6.57268e-22 -1.35326e-21 0.000392699 
182 1 -4.62809e-14 3.02782e-28 5.77482e-18 -4.5 -0.5 -4 0.05 -7.87474e-16 4.85765e-22 0.000392711 
186 1 1.44645e-18 -6.81832e-28 5.77119e-18 -3.5 -0.5 -4 0.05 -2.64224e-19 1.0806e-21 0.000392699 
190 1 -4.51971e-23 -8.0806e-28 5.77119e-18 -2.5 -0.5 -4 0.05 3.81488e-23 1.12583e-21 0.000392699 
194 1 -2.90494e-28 -1.66632e-27 5.77119e-18 -1.5 -0.5 -4 0.05 -5.48575e-22 9.72343e-22 0.000392699 
198 1 -1.67219e-27 -2.14641e-27 5.77119e-18 -0.5 -0.5 -4 0.05 3.12198e-21 3.28521e-21 0.000392699 
103 1 -4.62729e-14 8.4602e-14 5.77927e-18 -4.5 -5 -3.5 0.05 2.15511e-16 9.63744e-16 0.000392758 
104 1 8.4602e-14 -4.62729e-14 5.77927e-18 -5 -4.5 -3.5 0.05 9.63744e-16 2.15511e-16 0.000392758 
108 1 1.44427e-18 -4.62809e-14 5.7756e-18 -4 -4.5 -3.5 0.05 -1.71128e-19 2.15375e-16 0.000392711 
107 1 1.44552e-18 8.46041e-14 5.78098e-18 -3.5 -5 -3.5 0.05 1.52802e-19 9.63826e-16 0.000392746 
112 1 -1.7279e-22 -4.62809e-14 5.7756e-18 -3 -4.5 -3.5 0.05 -1.67787e-22 2.15375e-16 0.000392711 
111 1 -4.5147e-23 8.46041e-14 5.78098e-18 -2.5 -5 -3.5 0.05 -4.25368e-23 9.63826e-16 0.000392746 
116 1 9.46631e-27 -4.62809e-14 5.7756e-18 -2 -4.5 -3.5 0.05 4.38696e-23 2.15375e-16 0.000392711 
115 1 1.46412e-27 8.46041e-14 5.78098e-18 -1.5 -5 -3.5 0.05 2.88147e-23 9.63826e-16 0.000392746 
120 1 2.53862e-29 -4.62809e-14 5.7756e-18 -1 -4.5 -3.5 0.05 -2.31566e-22 2.15375e-16 0.000392711 
119 1 4.54366e-28 8.46041e-14 5.78098e-18 -0.5 -5 -3.5 0.05 7.17057e-23 9.63826e-16 0.000392746 
123 1 -4.62809e-14 1.44427e-18 5.7756e-18 -4.5 -4 -3.5 0.05 2.15375e-16 -1.70952e-19 0.000392711 
127 1 1.44645e-18 1.44722e-18 5.77732e-18 -3.5 -4 -3.5 0.05 1.5285e-19 -1.71151e-19 0.000392699 
131 1 -4.51972e-23 1.44722e-18 5.77732e-18 -2.5 -4 -3.5 0.05 7.48837e-24 -1.71138e-19 0.000392699 
135 1 1.43882e-27 1.44722e-18 5.77732e-18 -1.5 -4 -3.5 0.05 5.13341e-23 -1.71114e-19 0.000392699 
139 1 -2.60089e-29 1.44722e-18 5.77732e-18 -0.5 -4 -3.5 0.05 8.74713e-22 -1.71037e-19 0.000392699 
124 1 8.46041e-14 1.44552e-18 5.78098e-18 -5 -3.5 -3.5 0.05 9.63826e-16 1.5278e-19 0.000392746 
128 1 1.44722e-18 1.44645e-18 5.77732e-18 -4 -3.5 -3.5 0.05 -1.71115e-19 1.52805e-19 0.000392699 
132 1 -1.73112e-22 1.44645e-18 5.77731e-18 -3 -3.5 -3.5 0.05 -1.40324e-22 1.52797e-19 0.000392699 
136 1 9.4411e-27 1.44645e-18 5.77731e-18 -2 -3.5 -3.5 0.05 -6.17384e-25 1.52744e-19 0.000392699 
140 1 -5.04662e-29 1.44645e-18 5.77731e-18 -1 -3.5 -3.5 0.05 -4.27511e-23 1.52581e-19 0.000392699 
143 1 -4.62809e-14 -1.7279e-22 5.7756e-18 -4.5 -3 -3.5 0.05 2.15375e-16 -5.25629e-23 0.000392711 
147 1 1.44645e-18 -1.73112e-22 5.77731e-18 -3.5 -3 -3.5 0.05 1.5289e-19 -1.66592e-22 0.000392699 
151 1 -4.51971e-23 -1.73112e-22 5.77732e-18 -2.5 -3 -3.5 0.05 -1.25395e-23 -1.39253e-22 0.000392699 
155 1 1.43879e-27 -1.73112e-22 5.77732e-18 -1.5 -3 -3.5 0.05 1.18754e-22 -1.36295e-22 0.000392699 
159 1 2.26512e-28 -1.73112e-22 5.77732e-18 -0.5 -3 -3.5 0.05 7.24275e-22 -1.04918e-22 0.000392699 
144 1 8.46041e-14 -4.5147e-23 5.78098e-18 -5 -2.5 -3.5 0.05 9.63826e-16 -5.34926e-23 0.000392746 
148 1 1.44722e-18 -4.51972e-23 5.77732e-18 -4 -2.5 -3.5 0.05 -1.71181e-19 -1.30489e-23 0.000392699 
152 1 -1.73112e-22 -4.51971e-23 5.77732e-18 -3 -2.5 -3.5 0.05 -1.91581e-22 -4.03682e-23 0.000392699 
156 1 9.34012e-27 -4.51971e-23 5.77732e-18 -2 -2.5 -3.5 0.05 2.75391e-23 -9.39804e-23 0.000392699 
160 1 -2.52569e-29 -4.51971e-23 5.77732e-18 -1 -2.5 -3.5 0.05 -4.55575e-23 -2.90461e-22 0.000392699 
163 1 -4.62809e-14 9.46628e-27 5.7756e-18 -4.5 -2 -3.5 0.05 2.15375e-16 2.08986e-22 0.000392711 
167 1 1.44645e-18 9.49154e-27 5.77731e-18 -3.5 -2 -3.5 0.05 1.52859e-19 1.50962e-22 0.000392699 
171 1 -4.51971e-23 9.36532e-27 5.77732e-18 -2.5 -2 -3.5 0.05 1.33347e-23 1.78302e-22 0.000392699 
175 1 1.38825e-27 9.34008e-27 5.77732e-18 -1.5 -2 -3.5 0.05 8.17926e-23 1.08468e-22 0.000392699 
179 1 5.54598e-28 9.31481e-27 5.77732e-18 -0.5 -2 -3.5 0.05 8.74754e-22 2.59765e-22 0.000392699 
164 1 8.46041e-14 1.46412e-27 5.78098e-18 -5 -1.5 -3.5 0.05 9.63826e-16 2.5391e-23 0.000392746 
168 1 1.44722e-18 1.41365e-27 5.77732e-18 -4 -1.5 -3.5 0.05 -1.71211e-19 -2.07336e-23 0.000392699 
172 1 -1.73112e-22 1.43889e-27 5.77732e-18 -3 -1.5 -3.5 0.05 -1.58558e-22 -2.6499e-24 0.000392699 
176 1 9.31483e-27 1.38842e-27 5.77732e-18 -2 -1.5 -3.5 0.05 -3.15873e-23 -8.93536e-23 0.000392699 
180 1 2.1187e-31 1.41368e-27 5.77732e-18 -1 -1.5 -3.5 0.05 -1.41578e-22 -1.8951e-22 0.000392699 
183 1 -4.62809e-14 4.92802e-32 5.7756e-18 -4.5 -1 -3.5 0.05 2.15375e-16 -2.37938e-22 0.000392711 
187 1 1.44645e-18 -2.51412e-29 5.77731e-18 -3.5 -1 -3.5 0.05 1.52849e-19 -4.7386e-22 0.000392699 
191 1 -4.51971e-23 1.16457e-31 5.77732e-18 -2.5 -1 -3.5 0.05 -5.19973e-23 -5.36753e-22 0.000392699 
195 1 1.38852e-27 -5.03514e-29 5.77732e-18 -1.5 -1 -3.5 0.05 1.44307e-22 -6.25631e-22 0.000392699 
199 1 2.59912e-27 -8.07769e-28 5.77732e-18 -0.5 -1 -3.5 0.05 9.91466e-23 -1.20047e-22 0.000392699 
184 1 8.46041e-14 5.3007e-28 5.78098e-18 -5 -0.5 -3.5 0.05 9.63826e-16 1.93083e-22 0.000392746 
188 1 1.44722e-18 -4.04164e-28 5.77732e-18 -4 -0.5 -3.5 0.05 -1.71126e-19 1.12197e-21 0.000392699 
192 1 -1.73112e-22 2.77421e-28 5.77732e-18 -3 -0.5 -3.5 0.05 -9.19314e-23 1.09793e-21 0.000392699 
196 1 9.20464e-27 -7.60375e-29 5.77732e-18 -2 -0.5 -3.5 0.05 1.56576e-22 1.2809e-21 0.000392699 
200 1 -6.60627e-28 2.62529e-27 5.77732e-18 -1 -0.5 -3.5 0.05 2.99433e-22 6.57217e-23 0.000392699 
201 1 2.15522e-13 2.15522e-13 8.72928e-22 -5 -5 -3 0.05 1.52523e-16 1.52523e-16 0.000392758 
202 1 -4.62953e-14 -4.62953e-14 1.38143e-21 -4.5 -4.5 -3 0.05 6.60887e-20 6.59399e-20 0.000392724 
205 1 -6.73313e-18 8.46001e-14 1.12731e-21 -4 -5 -3 0.05 7.13804e-20 1.52469e-16 0.000392746 
206 1 1.44767e-18 -4.62809e-14 1.38141e-21 -3.5 -4.5 -3 0.05 8.11879e-23 6.5925e-20 0.000392711 
209 1 2.10222e-22 8.46041e-14 1.12747e-21 -3 -5 -3 0.05 -1.39634e-23 1.52469e-16 0.000392746 
210 1 -4.52705e-23 -4.62809e-14 1.38141e-21 -2.5 -4.5 -3 0.05 -5.68839e-23 6.59565e-20 0.000392711 
213 1 -6.58857e-27 8.46041e-14 1.12747e-21 -2 -5 -3 0.05 -8.43636e-25 1.52469e-16 0.000392746 
214 1 1.41358e-27 -4.62809e-14 1.38141e-21 -1.5 -4.5 -3 0.05 8.96878e-23 6.59648e-20 0.000392711 
217 1 -5.03916e-29 8.46041e-14 1.12747e-21 -1 -5 -3 0.05 -3.73938e-22 1.52469e-16 0.000392746 
218 1 -1.77195e-28 -4.62809e-14 1.38141e-21 -0.5 -4.5 -3 0.05 3.44042e-22 6.66079e-20 0.000392711 
221 1 8.46001e-14 -6.73313e-18 1.12731e-21 -5 -4 -3 0.05 1.52469e-16 7.14274e-20 0.000392746 
225 1 1.44875e-18 1.44875e-18 1.38108e-21 -4 -4 -3 0.05 7.13169e-20 7.12692e-20 0.000392699 
229 1 -1.73276e-22 1.44722e-18 1.38124e-21 -3 -4 -3 0.05 -5.96265e-23 7.13182e-20 0.000392699 
233 1 9.39059e-27 1.44722e-18 1.38124e-21 -2 -4 -3 0.05 -5.94765e-24 7.121e-20 0.000392699 
237 1 2.52573e-29 1.44722e-18 1.38124e-21 -1 -4 -3 0.05 -4.56317e-23 7.10915e-20 0.000392699 
222 1 -4.62809e-14 1.44767e-18 1.38141e-21 -4.5 -3.5 -3 0.05 6.59917e-20 1.33356e-22 0.000392711 
226 1 1.44645e-18 1.44645e-18 1.3814e-21 -3.5 -3.5 -3 0.05 1.50115e-22 -1.39539e-23 0.000392699 
230 1 -4.51971e-23 1.44645e-18 1.3814e-21 -2.5 -3.5 -3 0.05 -3.46447e-23 2.66195e-23 0.000392699 
234 1 1.41355e-27 1.44645e-18 1.3814e-21 -1.5 -3.5 -3 0.05 1.2282e-22 5.72429e-23 0.000392699 
238 1 3.77972e-28 1.44645e-18 1.3814e-21 -0.5 -3.5 -3 0.05 7.92459e-22 -1.89145e-23 0.000392699 
241 1 8.46041e-14 2.10222e-22 1.12747e-21 -5 -3 -3 0.05 1.52469e-16 -8.4342e-24 0.000392746 
245 1 1.44722e-18 -1.73276e-22 1.38124e-21 -4 -3 -3 0.05 7.12398e-20 -4.34781e-24 0.000392699 
249 1 -1.73113e-22 -1.73113e-22 1.3814e-21 -3 -3 -3 0.05 -7.30299e-23 7.40727e-24 0.000392699 
253 1 9.39062e-27 -1.73113e-22 1.3814e-21 -2 -3 -3 0.05 -3.25859e-23 -3.95883e-23 0.000392699 
257 1 -5.04972e-29 -1.73113e-22 1.3814e-21 -1 -3 -3 0.05 -1.59717e-23 -2.88378e-22 0.000392699 
242 1 -4.62809e-14 -4.52705e-23 1.38141e-21 -4.5 -2.5 -3 0.05 6.59722e-20 4.53243e-23 0.000392711 
246 1 1.44645e-18 -4.51971e-23 1.3814e-21 -3.5 -2.5 -3 0.05 1.51803e-22 -1.54127e-22 0.000392699 
250 1 -4.51972e-23 -4.51972e-23 1.3814e-21 -2.5 -2.5 -3 0.05 -3.29549e-23 -6.72291e-23 0.000392699 
254 1 1.3631e-27 -4.51971e-23 1.3814e-21 -1.5 -2.5 -3 0.05 9.1409e-23 -9.07417e-23 0.000392699 
258 1 1.7596e-28 -4.5197e-23 1.3814e-21 -0.5 -2.5 -3 0.05 8.02004e-22 -8.11994e-23 0.000392699 
261 1 8.46041e-14 -6.58858e-27 1.12747e-21 -5 -2 -3 0.05 1.52469e-16 4.5659e-23 0.000392746 
265 1 1.44722e-18 9.44103e-27 1.38124e-21 -4 -2 -3 0.05 7.12411e-20 2.1146e-22 0.000392699 
269 1 -1.73113e-22 9.3653e-27 1.3814e-21 -3 -2 -3 0.05 -5.37739e-23 1.7938e-22 0.000392699 
273 1 9.44111e-27 9.4663e-27 1.3814e-21 -2 -2 -3 0.05 -5.30399e-23 9.26769e-23 0.000392699 
277 1 -2.52681e-29 9.51677e-27 1.3814e-21 -1 -2 -3 0.05 8.45822e-23 8.49522e-23 0.000392699 
262 1 -4.62809e-14 1.4136e-27 1.38141e-21 -4.5 -1.5 -3 0.05 6.6028e-20 1.59724e-22 0.000392711 
266 1 1.44645e-18 1.41371e-27 1.3814e-21 -3.5 -1.5 -3 0.05 2.02593e-22 -2.36387e-22 0.000392699 
270 1 -4.51971e-23 1.38841e-27 1.3814e-21 -2.5 -1.5 -3 0.05 -5.58022e-23 -1.65764e-23 0.000392699 
274 1 1.38818e-27 1.4136e-27 1.3814e-21 -1.5 -1.5 -3 0.05 3.20204e-22 2.30285e-22 0.000392699 
278 1 -6.06359e-28 6.81716e-28 1.3814e-21 -0.5 -1.5 -3 0.05 7.72945e-22 -5.86926e-22 0.000392699 
281 1 8.46041e-14 -7.56294e-29 1.12747e-21 -5 -1 -3 0.05 1.52469e-16 -3.93742e-22 0.000392746 
285 1 1.44722e-18 5.05155e-29 1.38124e-21 -4 -1 -3 0.05 7.1061e-20 -1.12318e-22 0.000392699 
289 1 -1.73113e-22 -5.03768e-29 1.3814e-21 -3 -1 -3 0.05 -7.08765e-24 -4.80671e-22 0.000392699 
293 1 9.46619e-27 8.11876e-32 1.3814e-21 -2 -1 -3 0.05 1.52841e-22 -3.63488e-22 0.000392699 
297 1 -2.77566e-28 -3.02621e-28 1.3814e-21 -1 -1 -3 0.05 -4.10978e-22 -1.32407e-21 0.000392699 
282 1 -4.62809e-14 2.50668e-29 1.38141e-21 -4.5 -0.5 -3 0.05 6.65256e-20 7.08785e-22 0.000392711 
286 1 1.44645e-18 4.28894e-28 1.3814e-21 -3.5 -0.5 -3 0.05 -8.12098e-24 1.09468e-21 0.000392699 
290 1 -4.51968e-23 3.02671e-28 1.3814e-21 -2.5 -0.5 -3 0.05 4.5469e-23 1.13992e-21 0.000392699 
294 1 4.98062e-28 -2.02196e-28 1.3814e-21 -1.5 -0.5 -3 0.05 -6.27724e-22 1.11216e-21 0.000392699 
298 1 3.66534e-28 1.25586e-28 1.3814e-21 -0.5 -0.5 -3 0.05 2.66449e-21 2.75039e-21 0.000392699 
203 1 -4.62729e-14 8.4602e-14 3.61191e-22 -4.5 -5 -2.5 0.05 2.69032e-20 6.33462e-20 0.000392758 
204 1 8.4602e-14 -4.62729e-14 3.61191e-22 -5 -4.5 -2.5 0.05 6.33224e-20 2.69217e-20 0.000392758 
208 1 1.44426e-18 -4.62809e-14 3.6097e-22 -4 -4.5 -2.5 0.05 -5.95755e-23 2.69967e-20 0.000392711 
207 1 1.44552e-18 8.46041e-14 3.61375e-22 -3.5 -5 -2.5 0.05 1.05975e-22 6.34346e-20 0.000392746 
212 1 -1.72791e-22 -4.62809e-14 3.6097e-22 -3 -4.5 -2.5 0.05 -1.11096e-22 2.69788e-20 0.000392711 
211 1 -4.51471e-23 8.46041e-14 3.61374e-22 -2.5 -5 -2.5 0.05 -6.56124e-23 6.33642e-20 0.000392746 
216 1 9.34008e-27 -4.62809e-14 3.6097e-22 -2 -4.5 -2.5 0.05 2.83683e-23 2.69596e-20 0.000392711 
215 1 1.43887e-27 8.46041e-14 3.61375e-22 -1.5 -5 -2.5 0.05 1.79781e-23 6.34434e-20 0.000392746 
220 1 1.11152e-31 -4.62809e-14 3.6097e-22 -1 -4.5 -2.5 0.05 -1.95469e-22 2.69455e-20 0.000392711 
219 1 5.30112e-28 8.46041e-14 3.61375e-22 -0.5 -5 -2.5 0.05 7.70632e-23 6.34041e-20 0.000392746 
223 1 -4.62809e-14 1.44426e-18 3.6097e-22 -4.5 -4 -2.5 0.05 2.69561e-20 1.04275e-22 0.000392711 
227 1 1.44645e-18 1.44722e-18 3.61154e-22 -3.5 -4 -2.5 0.05 2.42692e-22 -2.07001e-22 0.000392699 
231 1 -4.51972e-23 1.44722e-18 3.61154e-22 -2.5 -4 -2.5 0.05 1.56059e-24 -1.61128e-22 0.000392699 
235 1 1.38837e-27 1.44722e-18 3.61154e-22 -1.5 -4 -2.5 0.05 2.72128e-23 -1.75999e-22 0.000392699 
239 1 -5.56097e-28 1.44722e-18 3.61154e-22 -0.5 -4 -2.5 0.05 9.06457e-22 -7.55283e-23 0.000392699 
224 1 8.46041e-14 1.44552e-18 3.61375e-22 -5 -3.5 -2.5 0.05 6.33746e-20 6.51451e-23 0.000392746 
228 1 1.44722e-18 1.44645e-18 3.61154e-22 -4 -3.5 -2.5 0.05 -1.54412e-22 1.85721e-22 0.000392699 
232 1 -1.73112e-22 1.44645e-18 3.61154e-22 -3 -3.5 -2.5 0.05 -8.25703e-23 1.19821e-22 0.000392699 
236 1 9.39058e-27 1.44645e-18 3.61154e-22 -2 -3.5 -2.5 0.05 1.14223e-23 7.9445e-23 0.000392699 
240 1 -5.05121e-29 1.44645e-18 3.61153e-22 -1 -3.5 -2.5 0.05 3.13286e-23 -8.15399e-23 0.000392699 
243 1 -4.62809e-14 -1.72791e-22 3.6097e-22 -4.5 -3 -2.5 0.05 2.69854e-20 2.52393e-23 0.000392711 
247 1 1.44645e-18 -1.73112e-22 3.61154e-22 -3.5 -3 -2.5 0.05 1.92694e-22 -9.47681e-23 0.000392699 
251 1 -4.51972e-23 -1.73112e-22 3.61154e-22 -2.5 -3 -2.5 0.05 -2.11022e-24 -4.18572e-23 0.000392699 
255 1 1.46409e-27 -1.73112e-22 3.61154e-22 -1.5 -3 -2.5 0.05 7.12705e-23 -1.0418e-22 0.000392699 
259 1 -1.52083e-28 -1.73112e-22 3.61154e-22 -0.5 -3 -2.5 0.05 7.2906e-22 -8.98982e-23 0.000392699 
244 1 8.46041e-14 -4.51471e-23 3.61374e-22 -5 -2.5 -2.5 0.05 6.3323e-20 -6.79662e-23 0.000392746 
248 1 1.44722e-18 -4.51972e-23 3.61154e-22 -4 -2.5 -2.5 0.05 -1.74123e-22 4.25133e-23 0.000392699 
252 1 -1.73112e-22 -4.51972e-23 3.61154e-22 -3 -2.5 -2.5 0.05 -8.08869e-23 -1.67656e-23 0.000392699 
256 1 9.3906e-27 -4.51971e-23 3.61154e-22 -2 -2.5 -2.5 0.05 -2.66016e-23 -1.23319e-22 0.000392699 
260 1 -5.0575e-29 -4.51971e-23 3.61153e-22 -1 -2.5 -2.5 0.05 4.83781e-23 -3.24198e-22 0.000392699 
263 1 -4.62809e-14 9.39057e-27 3.6097e-22 -4.5 -2 -2.5 0.05 2.70409e-20 2.41074e-22 0.000392711 
267 1 1.44645e-18 9.39057e-27 3.61154e-22 -3.5 -2 -2.5 0.05 2.02263e-22 1.70454e-22 0.000392699 
271 1 -4.51971e-23 9.41582e-27 3.61154e-22 -2.5 -2 -2.5 0.05 -2.9181e-23 1.57192e-22 0.000392699 
275 1 1.3883e-27 9.34009e-27 3.61154e-22 -1.5 -2 -2.5 0.05 2.76843e-23 1.47813e-22 0.000392699 
279 1 -2.02646e-28 9.31481e-27 3.61154e-22 -0.5 -2 -2.5 0.05 9.19246e-22 2.6216e-22 0.000392699 
264 1 8.46041e-14 1.43887e-27 3.61375e-22 -5 -1.5 -2.5 0.05 6.34771e-20 4.30092e-23 0.000392746 
268 1 1.44722e-18 1.46414e-27 3.61154e-22 -4 -1.5 -2.5 0.05 -2.50697e-22 -4.14879e-23 0.000392699 
272 1 -1.73112e-22 1.46413e-27 3.61154e-22 -3 -1.5 -2.5 0.05 -7.43385e-23 -2.22767e-23 0.000392699 
276 1 9.3148e-27 1.36319e-27 3.61154e-22 -2 -1.5 -2.5 0.05 -6.31828e-24 -1.55303e-22 0.000392699 
280 1 -2.50811e-29 1.41369e-27 3.61153e-22 -1 -1.5 -2.5 0.05 -9.39694e-23 -1.53978e-22 0.000392699 
283 1 -4.62809e-14 -2.52183e-29 3.6097e-22 -4.5 -1 -2.5 0.05 2.6902e-20 -1.80352e-22 0.000392711 
287 1 1.44645e-18 -5.04188e-29 3.61153e-22 -3.5 -1 -2.5 0.05 1.82413e-22 -3.94592e-22 0.000392699 
291 1 -4.51971e-23 -7.56479e-29 3.61153e-22 -2.5 -1 -2.5 0.05 -1.30777e-22 -4.51765e-22 0.000392699 
295 1 1.38857e-27 -7.56352e-29 3.61153e-22 -1.5 -1 -2.5 0.05 1.26736e-22 -5.26513e-22 0.000392699 
299 1 1.91754e-27 -2.01965e-28 3.61155e-22 -0.5 -1 -2.5 0.05 2.91794e-22 -9.03671e-23 0.000392699 
284 1 8.46041e-14 5.55345e-28 3.61375e-22 -5 -0.5 -2.5 0.05 6.34585e-20 1.81563e-22 0.000392746 
288 1 1.44722e-18 -7.82801e-28 3.61155e-22 -4 -0.5 -2.5 0.05 -2.45721e-22 1.14707e-21 0.000392699 
292 1 -1.73112e-22 -1.26455e-28 3.61154e-22 -3 -0.5 -2.5 0.05 -7.74055e-23 1.09478e-21 0.000392699 
296 1 9.21826e-27 -6.06128e-28 3.61154e-22 -2 -0.5 -2.5 0.05 1.38613e-22 1.32407e-21 0.000392699 
300 1 -6.96746e-29 1.96895e-27 3.61155e-22 -1 -0.5 -2.5 0.05 3.43704e-22 2.70427e-22 0.000392699 
301 1 2.15522e-13 2.15522e-13 8.64465e-26 -5 -5 -2 0.05 8.07656e-21 7.92812e-21 0.000392758 
302 1 -4.62953e-14 -4.62953e-14 1.50086e-25 -4.5 -4.5 -2 0.05 2.93034e-22 6.45495e-23 0.000392724 
305 1 -6.73313e-18 8.46001e-14 1.18253e-25 -4 -5 -2 0.05 -1.35756e-22 8.12862e-21 0.000392746 
306 1 1.44767e-18 -4.62809e-14 1.5006e-25 -3.5 -4.5 -2 0.05 6.34634e-23 8.43835e-23 0.000392711 
309 1 2.10222e-22 8.46041e-14 1.18481e-25 -3 -5 -2 0.05 -5.72419e-23 8.07287e-21 0.000392746 
310 1 -4.52703e-23 -4.62809e-14 1.50161e-25 -2.5 -4.5 -2 0.05 1.8768e-24 8.25028e-23 0.000392711 
313 1 -6.51284e-27 8.46041e-14 1.18405e-25 -2 -5 -2 0.05 6.24722e-23 8.03956e-21 0.000392746 
314 1 1.4136e-27 -4.62809e-14 1.50313e-25 -1.5 -4.5 -2 0.05 9.1145e-23 7.82874e-23 0.000392711 