ITEM: TIMESTEP
2
ITEM: NUMBER OF ATOMS
4000
ITEM: BOX BOUNDS ff ff ff
-5 5
-5 5
-5 5
ITEM: ATOMS id type fx fy fz x y z radius mux muy muz 
1 1 1.92096e-14 1.92096e-14 -3.83187e-14 -5 -5 -5 0.05 5.2068e-08 5.2068e-08 0.000392699 
2 1 -4.62382e-14 -4.62382e-14 -1.69082e-13 -4.5 -4.5 -5 0.05 -1.62519e-12 -1.62519e-12 0.00039263 
3 1 -4.63018e-14 8.46037e-14 9.24854e-14 -4.5 -5 -4.5 0.05 4.59998e-12 3.24604e-12 0.000392734 
4 1 8.46037e-14 -4.63018e-14 9.24854e-14 -5 -4.5 -4.5 0.05 3.25209e-12 4.60049e-12 0.000392734 
5 1 1.4419e-18 -1.11642e-13 -1.0375e-13 -4 -5 -5 0.05 1.62521e-12 5.20602e-08 0.000392669 
8 1 1.45484e-18 -4.63098e-14 9.24418e-14 -4 -4.5 -4.5 0.05 -7.83995e-15 4.6018e-12 0.000392687 
6 1 1.44415e-18 -4.62237e-14 -1.69103e-13 -3.5 -4.5 -5 0.05 4.00586e-15 -1.62527e-12 0.000392617 
7 1 1.44589e-18 8.46058e-14 9.25027e-14 -3.5 -5 -4.5 0.05 -2.42807e-15 3.24717e-12 0.000392722 
9 1 -1.10916e-22 -1.11638e-13 -1.03754e-13 -3 -5 -5 0.05 -1.05581e-15 5.20602e-08 0.000392669 
12 1 -1.76365e-22 -4.63098e-14 9.24418e-14 -3 -4.5 -4.5 0.05 -3.51978e-15 4.60078e-12 0.000392687 
10 1 -4.71437e-23 -4.62237e-14 -1.69103e-13 -2.5 -4.5 -5 0.05 2.60878e-15 -1.62466e-12 0.000392617 
11 1 -4.29804e-23 8.46058e-14 9.25027e-14 -2.5 -5 -4.5 0.05 -2.23703e-15 3.24717e-12 0.000392722 
13 1 -1.69189e-24 -1.11638e-13 -1.03754e-13 -2 -5 -5 0.05 -1.00494e-15 5.20602e-08 0.000392669 
16 1 -3.66313e-24 -4.63098e-14 9.24418e-14 -2 -4.5 -4.5 0.05 -3.71027e-15 4.60078e-12 0.000392687 
14 1 -1.66942e-24 -4.62237e-14 -1.69103e-13 -1.5 -4.5 -5 0.05 3.26937e-15 -1.62434e-12 0.000392617 
15 1 2.71368e-24 8.46058e-14 9.25027e-14 -1.5 -5 -4.5 0.05 -2.47194e-15 3.24627e-12 0.000392722 
17 1 4.1711e-22 -1.11638e-13 -1.03754e-13 -1 -5 -5 0.05 -1.59197e-15 5.20602e-08 0.000392669 
20 1 -1.92685e-21 -4.63098e-14 9.24418e-14 -1 -4.5 -4.5 0.05 -2.39864e-15 4.59811e-12 0.000392687 
18 1 2.52137e-20 -4.62237e-14 -1.69103e-13 -0.5 -4.5 -5 0.05 2.67981e-15 -1.6262e-12 0.000392617 
19 1 -6.88654e-21 8.46058e-14 9.25027e-14 -0.5 -5 -4.5 0.05 3.92724e-15 3.24618e-12 0.000392722 
21 1 -1.11642e-13 1.4419e-18 -1.0375e-13 -5 -4 -5 0.05 5.20602e-08 1.62414e-12 0.000392669 
23 1 -4.63098e-14 1.45484e-18 9.24418e-14 -4.5 -4 -4.5 0.05 4.60027e-12 -4.08399e-15 0.000392687 
25 1 9.61416e-18 9.61416e-18 -1.69115e-13 -4 -4 -5 0.05 1.62835e-12 1.6274e-12 0.000392605 
27 1 1.44681e-18 1.45779e-18 9.24592e-14 -3.5 -4 -4.5 0.05 3.33476e-16 -9.09262e-16 0.000392675 
29 1 -4.9032e-22 9.61263e-18 -1.69119e-13 -3 -4 -5 0.05 1.94716e-15 1.62812e-12 0.000392605 
31 1 -4.58762e-23 1.45779e-18 9.24592e-14 -2.5 -4 -4.5 0.05 1.173e-16 -9.08233e-16 0.000392675 
33 1 1.03577e-24 9.61263e-18 -1.69119e-13 -2 -4 -5 0.05 2.14182e-15 1.62812e-12 0.000392605 
35 1 4.88368e-25 1.4578e-18 9.24592e-14 -1.5 -4 -4.5 0.05 -8.60272e-16 -2.23733e-15 0.000392675 
37 1 1.08725e-21 9.61262e-18 -1.69119e-13 -1 -4 -5 0.05 1.28709e-15 1.63089e-12 0.000392605 
39 1 -4.22633e-21 1.45864e-18 9.24592e-14 -0.5 -4 -4.5 0.05 9.17401e-15 2.35826e-15 0.000392675 
22 1 -4.62237e-14 1.44415e-18 -1.69103e-13 -4.5 -3.5 -5 0.05 -1.62751e-12 1.10648e-15 0.000392617 
24 1 8.46058e-14 1.44589e-18 9.25027e-14 -5 -3.5 -4.5 0.05 3.24983e-12 -1.20732e-15 0.000392722 
28 1 1.4578e-18 1.44681e-18 9.24592e-14 -4 -3.5 -4.5 0.05 -4.20366e-15 1.35025e-15 0.000392675 
26 1 1.44294e-18 1.44294e-18 -1.69123e-13 -3.5 -3.5 -5 0.05 2.98807e-15 1.36223e-15 0.000392605 
32 1 -1.74296e-22 1.44681e-18 9.24592e-14 -3 -3.5 -4.5 0.05 7.27401e-16 5.37496e-16 0.000392675 
30 1 -4.43024e-23 1.44294e-18 -1.69123e-13 -2.5 -3.5 -5 0.05 1.59118e-15 1.97199e-15 0.000392605 
36 1 -1.8488e-25 1.44681e-18 9.24592e-14 -2 -3.5 -4.5 0.05 5.36828e-16 5.37425e-16 0.000392675 
34 1 6.40324e-25 1.44294e-18 -1.69123e-13 -1.5 -3.5 -5 0.05 2.94587e-15 2.58166e-15 0.000392605 
40 1 -1.00479e-21 1.4468e-18 9.24592e-14 -1 -3.5 -4.5 0.05 1.61935e-15 -2.93759e-15 0.000392675 
38 1 3.07788e-20 1.44093e-18 -1.69123e-13 -0.5 -3.5 -5 0.05 4.79754e-15 -2.09544e-16 0.000392605 
41 1 -1.11638e-13 -1.10847e-22 -1.03754e-13 -5 -3 -5 0.05 5.20602e-08 -2.46592e-15 0.000392669 
43 1 -4.63098e-14 -1.7509e-22 9.24418e-14 -4.5 -3 -4.5 0.05 4.60109e-12 -1.83835e-15 0.000392687 
45 1 9.61263e-18 -4.90058e-22 -1.69119e-13 -4 -3 -5 0.05 1.62814e-12 1.01758e-15 0.000392605 
47 1 1.44681e-18 -1.73878e-22 9.24592e-14 -3.5 -3 -4.5 0.05 9.44054e-16 7.26969e-16 0.000392675 
49 1 -4.91088e-22 -4.91405e-22 -1.69123e-13 -3 -3 -5 0.05 1.74366e-15 1.74407e-15 0.000392605 
51 1 -4.59596e-23 -1.74317e-22 9.24592e-14 -2.5 -3 -4.5 0.05 7.27879e-16 7.28095e-16 0.000392675 
53 1 9.27494e-26 -4.91084e-22 -1.69123e-13 -2 -3 -5 0.05 1.93823e-15 1.74352e-15 0.000392605 
55 1 2.99325e-25 -1.72666e-22 9.24592e-14 -1.5 -3 -4.5 0.05 -2.49272e-16 -3.12994e-16 0.000392675 
57 1 1.26719e-21 -4.94296e-22 -1.69123e-13 -1 -3 -5 0.05 8.55271e-16 4.98943e-15 0.000392605 
59 1 1.23893e-21 -2.69868e-21 9.24592e-14 -0.5 -3 -4.5 0.05 8.76634e-15 2.73142e-15 0.000392675 
42 1 -4.62237e-14 -4.66847e-23 -1.69103e-13 -4.5 -2.5 -5 0.05 -1.62751e-12 7.25902e-16 0.000392617 
44 1 8.46058e-14 -4.25373e-23 9.25027e-14 -5 -2.5 -4.5 0.05 3.24984e-12 -1.42333e-15 0.000392722 
48 1 1.4578e-18 -4.55687e-23 9.24592e-14 -4 -2.5 -4.5 0.05 -4.20351e-15 1.54078e-15 0.000392675 
46 1 1.44294e-18 -4.48343e-23 -1.69123e-13 -3.5 -2.5 -5 0.05 2.98833e-15 9.8149e-16 0.000392605 
52 1 -1.74567e-22 -4.61515e-23 9.24592e-14 -3 -2.5 -4.5 0.05 7.2747e-16 7.28023e-16 0.000392675 
50 1 -4.45056e-23 -4.4431e-23 -1.69123e-13 -2.5 -2.5 -5 0.05 1.59144e-15 1.59126e-15 0.000392605 
56 1 -4.24229e-25 -4.56627e-23 9.24592e-14 -2 -2.5 -4.5 0.05 5.36897e-16 7.27934e-16 0.000392675 
54 1 3.82296e-25 -4.42207e-23 -1.69123e-13 -1.5 -2.5 -5 0.05 2.94603e-15 2.20104e-15 0.000392605 
60 1 -1.00571e-21 -5.02584e-23 9.24592e-14 -1 -2.5 -4.5 0.05 1.61924e-15 -2.74705e-15 0.000392675 
58 1 3.12903e-20 -2.56817e-21 -1.69123e-13 -0.5 -2.5 -5 0.05 4.79764e-15 2.2279e-16 0.000392605 
61 1 -1.11638e-13 -2.12097e-24 -1.03754e-13 -5 -2 -5 0.05 5.20602e-08 -2.41506e-15 0.000392669 
63 1 -4.63098e-14 -3.51085e-24 9.24418e-14 -4.5 -2 -4.5 0.05 4.60109e-12 -2.02946e-15 0.000392687 
65 1 9.61263e-18 1.69805e-24 -1.69119e-13 -4 -2 -5 0.05 1.62814e-12 1.06858e-15 0.000392605 
67 1 1.44681e-18 -1.746e-24 9.24592e-14 -3.5 -2 -4.5 0.05 9.44046e-16 5.35706e-16 0.000392675 
69 1 -4.91088e-22 2.76659e-26 -1.69123e-13 -3 -2 -5 0.05 1.74365e-15 1.79512e-15 0.000392605 
71 1 -4.60077e-23 -2.08904e-24 9.24592e-14 -2.5 -2 -4.5 0.05 7.2787e-16 5.36832e-16 0.000392675 
73 1 9.24791e-26 3.48212e-25 -1.69123e-13 -2 -2 -5 0.05 1.93823e-15 1.79457e-15 0.000392605 
75 1 3.19363e-25 -3.45717e-25 9.24592e-14 -1.5 -2 -4.5 0.05 -2.49281e-16 -5.04243e-16 0.000392675 
77 1 1.2671e-21 -2.95317e-24 -1.69123e-13 -1 -2 -5 0.05 8.55141e-16 5.04056e-15 0.000392605 
79 1 1.23865e-21 -2.52667e-21 9.24592e-14 -0.5 -2 -4.5 0.05 8.76628e-15 2.54039e-15 0.000392675 
62 1 -4.62237e-14 -4.06272e-25 -1.69103e-13 -4.5 -1.5 -5 0.05 -1.62751e-12 1.87778e-15 0.000392617 
64 1 8.46058e-14 3.1357e-24 9.25027e-14 -5 -1.5 -4.5 0.05 3.24894e-12 -1.65851e-15 0.000392722 
68 1 1.4578e-18 6.96899e-25 9.24592e-14 -4 -1.5 -4.5 0.05 -4.20354e-15 4.60385e-16 0.000392675 
66 1 1.44294e-18 1.14382e-24 -1.69123e-13 -3.5 -1.5 -5 0.05 2.98824e-15 1.98965e-15 0.000392605 
72 1 -1.74027e-22 -2.2719e-25 9.24592e-14 -3 -1.5 -4.5 0.05 7.27549e-16 -3.52226e-16 0.000392675 
70 1 -4.46608e-23 1.32105e-24 -1.69123e-13 -2.5 -1.5 -5 0.05 1.59132e-15 2.59951e-15 0.000392605 
76 1 1.38995e-25 4.8712e-25 9.24592e-14 -2 -1.5 -4.5 0.05 5.36977e-16 -3.52315e-16 0.000392675 
74 1 3.39537e-26 1.23637e-24 -1.69123e-13 -1.5 -1.5 -5 0.05 2.9459e-15 3.20929e-15 0.000392605 
80 1 -1.00526e-21 -4.05975e-24 9.24592e-14 -1 -1.5 -4.5 0.05 1.61929e-15 -3.82735e-15 0.000392675 
78 1 3.1599e-20 -2.21423e-21 -1.69123e-13 -0.5 -1.5 -5 0.05 4.79753e-15 1.0873e-15 0.000392605 
81 1 -1.11638e-13 5.22554e-23 -1.03754e-13 -5 -1 -5 0.05 5.20602e-08 -3.87529e-15 0.000392669 
83 1 -4.63098e-14 -2.31158e-21 9.24418e-14 -4.5 -1 -4.5 0.05 4.60037e-12 1.51983e-15 0.000392687 
85 1 9.61263e-18 7.26326e-22 -1.69119e-13 -4 -1 -5 0.05 1.62812e-12 -5.98862e-16 0.000392605 
87 1 1.44681e-18 -1.1857e-21 9.24592e-14 -3.5 -1 -4.5 0.05 1.35883e-15 2.37312e-15 0.000392675 
89 1 -4.91563e-22 9.06107e-22 -1.69123e-13 -3 -1 -5 0.05 2.33294e-15 -5.32985e-16 0.000392605 
91 1 -4.7329e-23 -1.18719e-21 9.24592e-14 -2.5 -1 -4.5 0.05 1.14277e-15 2.37434e-15 0.000392675 
93 1 -5.15625e-25 9.06236e-22 -1.69123e-13 -2 -1 -5 0.05 2.52746e-15 -5.33287e-16 0.000392605 
95 1 -5.82112e-25 -1.18521e-21 9.24592e-14 -1.5 -1 -4.5 0.05 1.65369e-16 1.33297e-15 0.000392675 
97 1 1.37503e-21 1.37385e-21 -1.69123e-13 -1 -1 -5 0.05 1.12185e-15 2.9162e-15 0.000392605 
99 1 1.1983e-20 6.73247e-21 9.24592e-14 -0.5 -1 -4.5 0.05 9.03904e-15 4.54856e-15 0.000392675 
82 1 -4.62237e-14 2.92752e-20 -1.69103e-13 -4.5 -0.5 -5 0.05 -1.62537e-12 6.21529e-16 0.000392617 
84 1 8.46058e-14 -5.01108e-21 9.25027e-14 -5 -0.5 -4.5 0.05 3.24725e-12 2.52874e-15 0.000392722 
88 1 1.46075e-18 -6.03205e-21 9.24592e-14 -4 -0.5 -4.5 0.05 1.08038e-15 1.15145e-14 0.000392675 
86 1 1.44093e-18 3.17235e-20 -1.69123e-13 -3.5 -0.5 -5 0.05 -2.0913e-15 4.5317e-15 0.000392605 
92 1 -2.69834e-21 -9.39571e-22 9.24592e-14 -3 -0.5 -4.5 0.05 3.36834e-15 9.68465e-15 0.000392675 
90 1 -2.56933e-21 3.22367e-20 -1.69123e-13 -2.5 -0.5 -5 0.05 -1.65906e-15 4.53216e-15 0.000392605 
96 1 -2.52534e-21 -9.39902e-22 9.24592e-14 -2 -0.5 -4.5 0.05 3.17727e-15 9.68455e-15 0.000392675 
94 1 -1.19385e-21 3.35674e-20 -1.69123e-13 -1.5 -0.5 -5 0.05 -1.00332e-16 4.8203e-15 0.000392605 
100 1 6.29419e-21 5.88388e-21 9.24592e-14 -1 -0.5 -4.5 0.05 6.29517e-15 7.93944e-15 0.000392675 
98 1 2.54946e-20 3.02302e-20 -1.69123e-13 -0.5 -0.5 -5 0.05 2.59875e-15 6.13878e-15 0.000392605 
101 1 2.15516e-13 2.15516e-13 5.78991e-18 -5 -5 -4 0.05 1.62538e-12 1.62574e-12 0.000392758 
102 1 -4.62953e-14 -4.62953e-14 5.77844e-18 -4.5 -4.5 -4 0.05 -4.55192e-16 1.18512e-15 0.000392724 
105 1 -6.73805e-18 8.45939e-14 5.78089e-18 -4 -5 -4 0.05 -1.2133e-15 1.62364e-12 0.000392746 
106 1 1.44768e-18 -4.62809e-14 5.77482e-18 -3.5 -4.5 -4 0.05 -1.43422e-15 1.33973e-15 0.000392711 
109 1 2.10657e-22 8.4598e-14 5.78172e-18 -3 -5 -4 0.05 -6.09842e-16 1.62425e-12 0.000392746 
110 1 -4.25416e-23 -4.62809e-14 5.77481e-18 -2.5 -4.5 -4 0.05 -1.23109e-15 1.34018e-15 0.000392711 
113 1 7.5477e-25 8.4598e-14 5.78172e-18 -2 -5 -4 0.05 -3.10119e-16 1.62447e-12 0.000392746 
114 1 1.80721e-25 -4.62809e-14 5.77482e-18 -1.5 -4.5 -4 0.05 -2.69436e-15 2.41669e-15 0.000392711 
117 1 6.15544e-22 8.4598e-14 5.77952e-18 -1 -5 -4 0.05 -1.39029e-15 1.62258e-12 0.000392746 
118 1 8.90361e-21 -4.62809e-14 5.7938e-18 -0.5 -4.5 -4 0.05 3.0952e-15 9.27744e-16 0.000392711 
121 1 8.45939e-14 -6.73805e-18 5.78089e-18 -5 -4 -4 0.05 1.62489e-12 -2.7115e-16 0.000392746 
125 1 1.44383e-18 1.44383e-18 5.76952e-18 -4 -4 -4 0.05 -1.67805e-15 4.97225e-16 0.000392699 
129 1 -1.74086e-22 1.4423e-18 5.77035e-18 -3 -4 -4 0.05 -6.10196e-16 4.97392e-16 0.000392699 
133 1 -7.35359e-25 1.4423e-18 5.77036e-18 -2 -4 -4 0.05 -1.66895e-16 7.12752e-16 0.000392699 
137 1 -8.33531e-23 1.4423e-18 5.76789e-18 -1 -4 -4 0.05 -2.35644e-15 -2.73223e-15 0.000392699 
122 1 -4.62809e-14 1.44767e-18 5.77482e-18 -4.5 -3.5 -4 0.05 1.13669e-15 -1.22961e-15 0.000392711 
126 1 1.44645e-18 1.44645e-18 5.77119e-18 -3.5 -3.5 -4 0.05 1.33468e-19 -4.0736e-16 0.000392699 
130 1 -4.50176e-23 1.44645e-18 5.77119e-18 -2.5 -3.5 -4 0.05 2.02877e-16 -4.06558e-16 0.000392699 
134 1 -2.25382e-24 1.44645e-18 5.77119e-18 -1.5 -3.5 -4 0.05 -5.67998e-17 -8.34621e-17 0.000392699 
138 1 -5.22633e-21 1.44898e-18 5.79128e-18 -0.5 -3.5 -4 0.05 7.25827e-15 -2.36998e-15 0.000392699 
141 1 8.4598e-14 2.10876e-22 5.78172e-18 -5 -3 -4 0.05 1.62509e-12 -6.09868e-16 0.000392746 
145 1 1.4423e-18 -1.74827e-22 5.77036e-18 -4 -3 -4 0.05 -1.0683e-15 3.27689e-19 0.000392699 
149 1 -1.73093e-22 -1.73184e-22 5.77119e-18 -3 -3 -4 0.05 -1.43079e-19 3.01052e-19 0.000392699 
153 1 -1.05156e-26 -1.73401e-22 5.77119e-18 -2 -3 -4 0.05 4.43273e-16 2.15469e-16 0.000392699 
157 1 -7.94302e-23 -1.71165e-22 5.76872e-18 -1 -3 -4 0.05 -1.74662e-15 -2.23036e-15 0.000392699 
142 1 -4.62809e-14 -4.33058e-23 5.77481e-18 -4.5 -2.5 -4 0.05 1.13696e-15 -6.20245e-16 0.000392711 
146 1 1.44645e-18 -4.45305e-23 5.77119e-18 -3.5 -2.5 -4 0.05 1.72925e-19 2.02222e-16 0.000392699 
150 1 -4.50173e-23 -4.48017e-23 5.77119e-18 -2.5 -2.5 -4 0.05 2.02916e-16 2.03023e-16 0.000392699 
154 1 -2.01979e-24 -4.38644e-23 5.77119e-18 -1.5 -2.5 -4 0.05 -5.68318e-17 5.26031e-16 0.000392699 
158 1 -5.22695e-21 2.47983e-21 5.79128e-18 -0.5 -2.5 -4 0.05 7.25808e-15 -2.1666e-15 0.000392699 
161 1 8.4598e-14 3.11754e-25 5.78172e-18 -5 -2 -4 0.05 1.62531e-12 -3.09869e-16 0.000392746 
165 1 1.4423e-18 -1.33059e-24 5.77036e-18 -4 -2 -4 0.05 -1.06839e-15 5.87504e-16 0.000392699 
169 1 -1.73093e-22 -1.05739e-25 5.77119e-18 -3 -2 -4 0.05 -2.0214e-19 5.87435e-16 0.000392699 
173 1 -1.07391e-26 -3.22327e-25 5.77119e-18 -2 -2 -4 0.05 4.43214e-16 8.02603e-16 0.000392699 
177 1 -7.96988e-23 1.78941e-24 5.76872e-18 -1 -2 -4 0.05 -1.74667e-15 -1.64306e-15 0.000392699 
162 1 -4.62809e-14 -4.95557e-25 5.77482e-18 -4.5 -1.5 -4 0.05 1.89093e-15 -2.69386e-15 0.000392711 
166 1 1.44645e-18 -1.95338e-25 5.77119e-18 -3.5 -1.5 -4 0.05 1.43866e-16 -7.11249e-16 0.000392699 
170 1 -4.48789e-23 -9.37004e-25 5.77119e-18 -2.5 -1.5 -4 0.05 3.46634e-16 -7.10485e-16 0.000392699 
174 1 -2.15504e-24 -4.32425e-25 5.77119e-18 -1.5 -1.5 -4 0.05 8.69404e-17 -3.87354e-16 0.000392699 
178 1 -7.77605e-21 -1.31914e-21 5.79074e-18 -0.5 -1.5 -4 0.05 7.40183e-15 -3.22461e-15 0.000392699 
181 1 8.4598e-14 2.53752e-22 5.78006e-18 -5 -1 -4 0.05 1.62322e-12 -2.5389e-15 0.000392746 
185 1 1.4423e-18 -4.42518e-22 5.76735e-18 -4 -1 -4 0.05 -1.04497e-15 -2.54416e-15 0.000392699 
189 1 -1.73042e-22 -2.58425e-22 5.76818e-18 -3 -1 -4 0.05 -2.63074e-16 -2.13749e-15 0.000392699 
193 1 4.07428e-26 -2.58954e-22 5.76818e-18 -2 -1 -4 0.05 1.80365e-16 -1.92223e-15 0.000392699 
197 1 -1.05439e-21 -8.71824e-22 5.76571e-18 -1 -1 -4 0.05 -2.40554e-15 -4.59749e-15 0.000392699 
182 1 -4.62809e-14 8.06799e-21 5.80626e-18 -4.5 -0.5 -4 0.05 2.42041e-15 2.24165e-15 0.000392711 
186 1 1.44949e-18 -5.85096e-21 5.79128e-18 -3.5 -0.5 -4 0.05 -1.37675e-15 8.92859e-15 0.000392699 
190 1 2.4797e-21 -5.33955e-21 5.79282e-18 -2.5 -0.5 -4 0.05 -1.37723e-15 8.31879e-15 0.000392699 
194 1 -2.99141e-22 -6.86595e-21 5.79228e-18 -1.5 -0.5 -4 0.05 -2.24827e-15 8.31902e-15 0.000392699 
198 1 -1.05853e-20 -5.28191e-21 5.79912e-18 -0.5 -0.5 -4 0.05 1.48763e-14 1.52417e-14 0.000392699 
103 1 -4.62729e-14 8.4602e-14 5.77927e-18 -4.5 -5 -3.5 0.05 1.28484e-15 -1.23441e-15 0.000392758 
104 1 8.4602e-14 -4.62729e-14 5.77927e-18 -5 -4.5 -3.5 0.05 1.67254e-15 4.5947e-16 0.000392758 
108 1 1.44426e-18 -4.62809e-14 5.7756e-18 -4 -4.5 -3.5 0.05 -2.96004e-15 2.5471e-15 0.000392711 
107 1 1.44552e-18 8.46041e-14 5.78099e-18 -3.5 -5 -3.5 0.05 -1.01628e-15 -1.12178e-15 0.000392746 
112 1 -1.72925e-22 -4.62809e-14 5.7756e-18 -3 -4.5 -3.5 0.05 -1.43489e-15 2.34346e-15 0.000392711 
111 1 -4.51414e-23 8.46041e-14 5.78099e-18 -2.5 -5 -3.5 0.05 -4.0685e-16 -1.12199e-15 0.000392746 
116 1 -3.92645e-25 -4.62809e-14 5.7756e-18 -2 -4.5 -3.5 0.05 -8.47621e-16 2.34318e-15 0.000392711 
115 1 3.0455e-26 8.46041e-14 5.78099e-18 -1.5 -5 -3.5 0.05 -9.66753e-16 -1.33736e-15 0.000392746 
120 1 -1.36283e-21 -4.62809e-14 5.77313e-18 -1 -4.5 -3.5 0.05 -2.99845e-15 1.12396e-15 0.000392711 
119 1 -9.7876e-21 8.46041e-14 5.79406e-18 -0.5 -5 -3.5 0.05 4.26015e-15 -1.63533e-15 0.000392746 
123 1 -4.62809e-14 1.44427e-18 5.7756e-18 -4.5 -4 -3.5 0.05 1.32661e-15 -2.00303e-15 0.000392711 
127 1 1.44645e-18 1.44722e-18 5.77732e-18 -3.5 -4 -3.5 0.05 -6.09683e-16 -5.70445e-16 0.000392699 
131 1 -4.50638e-23 1.44722e-18 5.77732e-18 -2.5 -4 -3.5 0.05 -4.0719e-16 -5.69715e-16 0.000392699 
135 1 8.51475e-25 1.44722e-18 5.77731e-18 -1.5 -4 -3.5 0.05 -8.11949e-16 -6.78994e-16 0.000392699 
139 1 -3.05652e-21 1.44905e-18 5.78441e-18 -0.5 -4 -3.5 0.05 7.47473e-15 -6.15698e-16 0.000392699 
124 1 8.46041e-14 1.44552e-18 5.78099e-18 -5 -3.5 -3.5 0.05 -2.85222e-16 -6.09343e-16 0.000392746 
128 1 1.44722e-18 1.44645e-18 5.77732e-18 -4 -3.5 -3.5 0.05 -2.13619e-15 -4.06389e-16 0.000392699 
132 1 -1.73059e-22 1.44645e-18 5.77732e-18 -3 -3.5 -3.5 0.05 -2.11051e-19 -4.06038e-16 0.000392699 
136 1 3.08616e-25 1.44645e-18 5.77732e-18 -2 -3.5 -3.5 0.05 4.42822e-16 -1.90949e-16 0.000392699 
140 1 -1.74689e-22 1.44645e-18 5.77458e-18 -1 -3.5 -3.5 0.05 -1.09272e-15 -2.88155e-15 0.000392699 
143 1 -4.62809e-14 -1.732e-22 5.7756e-18 -4.5 -3 -3.5 0.05 2.14018e-15 -8.23676e-16 0.000392711 
147 1 1.44645e-18 -1.7315e-22 5.77732e-18 -3.5 -3 -3.5 0.05 6.00264e-19 -5.73099e-19 0.000392699 
151 1 -4.50638e-23 -1.7315e-22 5.77732e-18 -2.5 -3 -3.5 0.05 2.03007e-16 2.82764e-19 0.000392699 
155 1 -4.12784e-25 -1.73345e-22 5.77731e-18 -1.5 -3 -3.5 0.05 -2.00916e-16 1.78867e-16 0.000392699 
159 1 4.93622e-22 -1.70512e-21 5.78441e-18 -0.5 -3 -3.5 0.05 7.67711e-15 -5.98005e-16 0.000392699 
144 1 8.46041e-14 -4.50856e-23 5.78099e-18 -5 -2.5 -3.5 0.05 -2.84868e-16 -4.06742e-16 0.000392746 
148 1 1.44722e-18 -4.48824e-23 5.77732e-18 -4 -2.5 -3.5 0.05 -2.13607e-15 2.02806e-16 0.000392699 
152 1 -1.73059e-22 -4.4944e-23 5.77732e-18 -3 -2.5 -3.5 0.05 -1.7616e-19 2.03157e-16 0.000392699 
156 1 3.40668e-25 -4.49214e-23 5.77732e-18 -2 -2.5 -3.5 0.05 4.42857e-16 4.18227e-16 0.000392699 
160 1 -1.74773e-22 -4.56804e-23 5.77458e-18 -1 -2.5 -3.5 0.05 -1.09301e-15 -2.27273e-15 0.000392699 
163 1 -4.62809e-14 -4.09525e-25 5.7756e-18 -4.5 -2 -3.5 0.05 2.13999e-15 -2.36602e-16 0.000392711 
167 1 1.44645e-18 -1.82395e-25 5.77732e-18 -3.5 -2 -3.5 0.05 5.36711e-19 5.86311e-16 0.000392699 
171 1 -4.5016e-23 -8.66207e-26 5.77732e-18 -2.5 -2 -3.5 0.05 2.02944e-16 5.87167e-16 0.000392699 
175 1 -2.97166e-25 -1.89217e-25 5.77731e-18 -1.5 -2 -3.5 0.05 -2.0098e-16 7.65764e-16 0.000392699 
179 1 3.1157e-22 -1.71382e-21 5.78333e-18 -0.5 -2 -3.5 0.05 7.67716e-15 -1.06554e-17 0.000392699 
164 1 8.46041e-14 -5.79203e-25 5.78098e-18 -5 -1.5 -3.5 0.05 -5.002e-16 -9.66681e-16 0.000392746 
168 1 1.44722e-18 -4.49958e-25 5.77731e-18 -4 -1.5 -3.5 0.05 -2.13612e-15 -8.54487e-16 0.000392699 
172 1 -1.73177e-22 -3.32582e-25 5.77731e-18 -3 -1.5 -3.5 0.05 -9.38085e-20 -8.54418e-16 0.000392699 
176 1 2.44899e-25 -8.39193e-26 5.77731e-18 -2 -1.5 -3.5 0.05 4.42939e-16 -6.39348e-16 0.000392699 
180 1 -2.3873e-22 -2.04553e-25 5.77457e-18 -1 -1.5 -3.5 0.05 -1.09286e-15 -3.32994e-15 0.000392699 
183 1 -4.62809e-14 -1.56663e-21 5.77232e-18 -4.5 -1 -3.5 0.05 1.29706e-15 -1.8245e-15 0.000392711 
187 1 1.44645e-18 -3.54564e-22 5.77404e-18 -3.5 -1 -3.5 0.05 5.89712e-19 -2.19583e-15 0.000392699 
191 1 -4.50232e-23 -3.54496e-22 5.77403e-18 -2.5 -1 -3.5 0.05 2.0302e-16 -2.19494e-15 0.000392699 
195 1 2.03824e-25 -4.18153e-22 5.77403e-18 -1.5 -1 -3.5 0.05 -2.00653e-16 -2.01627e-15 0.000392699 
199 1 9.07211e-21 -2.42738e-22 5.79178e-18 -0.5 -1 -3.5 0.05 5.42372e-15 -3.33481e-15 0.000392699 
184 1 8.46041e-14 -7.58066e-21 5.78765e-18 -5 -0.5 -3.5 0.05 -1.21687e-15 3.38689e-15 0.000392746 
188 1 1.44912e-18 -1.51145e-21 5.78441e-18 -4 -0.5 -3.5 0.05 -7.25315e-16 8.73728e-15 0.000392699 
192 1 -1.70489e-21 3.86786e-22 5.78594e-18 -3 -0.5 -3.5 0.05 1.90539e-16 8.73709e-15 0.000392699 
196 1 -1.71256e-21 2.04711e-22 5.78486e-18 -2 -0.5 -3.5 0.05 6.33702e-16 8.95266e-15 0.000392699 
200 1 -6.8333e-22 5.04519e-21 5.79386e-18 -1 -0.5 -3.5 0.05 -1.1095e-15 4.51514e-15 0.000392699 
201 1 2.15522e-13 2.15522e-13 8.72543e-22 -5 -5 -3 0.05 -1.21588e-15 -8.52247e-16 0.000392758 
202 1 -4.62953e-14 -4.62953e-14 1.37805e-21 -4.5 -4.5 -3 0.05 3.31477e-16 1.97273e-15 0.000392724 
205 1 -6.73313e-18 8.46001e-14 1.12612e-21 -4 -5 -3 0.05 -2.28076e-15 -2.54346e-15 0.000392746 
206 1 1.44767e-18 -4.62809e-14 1.38188e-21 -3.5 -4.5 -3 0.05 -1.43479e-15 2.12768e-15 0.000392711 
209 1 2.09694e-22 8.46041e-14 1.12805e-21 -3 -5 -3 0.05 -6.09944e-16 -1.93331e-15 0.000392746 
210 1 -4.51273e-23 -4.62809e-14 1.38215e-21 -2.5 -4.5 -3 0.05 -1.23183e-15 2.12815e-15 0.000392711 
213 1 -1.45293e-26 8.46041e-14 1.12746e-21 -2 -5 -3 0.05 -3.10452e-16 -1.71806e-15 0.000392746 
214 1 -2.14026e-24 -4.62809e-14 1.3801e-21 -1.5 -4.5 -3 0.05 -2.83896e-15 3.06038e-15 0.000392711 
217 1 6.13829e-22 8.46041e-14 -1.07214e-21 -1 -5 -3 0.05 -8.81212e-16 -3.71037e-15 0.000392746 
218 1 1.06566e-20 -4.62809e-14 1.28684e-20 -0.5 -4.5 -3 0.05 4.125e-15 2.57244e-15 0.000392711 
221 1 8.46001e-14 -6.73313e-18 1.1278e-21 -5 -4 -3 0.05 -1.30054e-15 -1.33855e-15 0.000392746 
225 1 1.44875e-18 1.44875e-18 1.37929e-21 -4 -4 -3 0.05 -2.74584e-15 -5.69806e-16 0.000392699 
229 1 -1.73291e-22 1.44722e-18 1.37986e-21 -3 -4 -3 0.05 -6.1036e-16 -5.69346e-16 0.000392699 
233 1 5.60333e-25 1.44722e-18 1.38096e-21 -2 -4 -3 0.05 -1.67517e-16 -3.54117e-16 0.000392699 
237 1 -1.75607e-22 1.44722e-18 -1.35916e-21 -1 -4 -3 0.05 -1.70325e-15 -4.04507e-15 0.000392699 
222 1 -4.62809e-14 1.44767e-18 1.38201e-21 -4.5 -3.5 -3 0.05 1.9246e-15 -1.22987e-15 0.000392711 
226 1 1.44645e-18 1.44645e-18 1.38267e-21 -3.5 -3.5 -3 0.05 4.3509e-19 -4.07009e-16 0.000392699 
230 1 -4.51197e-23 1.44645e-18 1.38193e-21 -2.5 -3.5 -3 0.05 2.02976e-16 -4.06153e-16 0.000392699 
234 1 -1.05534e-24 1.44645e-18 1.38041e-21 -1.5 -3.5 -3 0.05 -2.01025e-16 -2.27643e-16 0.000392699 
238 1 -2.77208e-22 1.44645e-18 9.75947e-21 -0.5 -3.5 -3 0.05 7.67791e-15 -1.00408e-15 0.000392699 
241 1 8.46041e-14 2.10536e-22 1.12792e-21 -5 -3 -3 0.05 -1.09608e-15 -6.09904e-16 0.000392746 
245 1 1.44722e-18 -1.73394e-22 1.38046e-21 -4 -3 -3 0.05 -2.13586e-15 1.01454e-19 0.000392699 
249 1 -1.73139e-22 -1.73231e-22 1.38117e-21 -3 -3 -3 0.05 -7.71181e-20 3.67215e-19 0.000392699 
253 1 3.95743e-25 -1.7323e-22 1.3814e-21 -2 -3 -3 0.05 4.4288e-16 2.15442e-16 0.000392699 
257 1 -1.73235e-22 -1.73181e-22 -1.35782e-21 -1 -3 -3 0.05 -1.0932e-15 -2.47603e-15 0.000392699 
242 1 -4.62809e-14 -4.50703e-23 1.38137e-21 -4.5 -2.5 -3 0.05 1.92487e-15 -6.2076e-16 0.000392711 
246 1 1.44645e-18 -4.49998e-23 1.38251e-21 -3.5 -2.5 -3 0.05 4.70115e-19 2.02319e-16 0.000392699 
250 1 -4.51193e-23 -4.49999e-23 1.38176e-21 -2.5 -2.5 -3 0.05 2.03011e-16 2.03175e-16 0.000392699 
254 1 -8.20742e-25 -4.49829e-23 1.38019e-21 -1.5 -2.5 -3 0.05 -2.01061e-16 3.81597e-16 0.000392699 
258 1 -2.77215e-22 -4.60135e-23 9.75967e-21 -0.5 -2.5 -3 0.05 7.67772e-15 -8.00984e-16 0.000392699 
261 1 8.46041e-14 1.65585e-25 1.12823e-21 -5 -2 -3 0.05 -8.80691e-16 -3.10136e-16 0.000392746 
265 1 1.44722e-18 2.39154e-25 1.38097e-21 -4 -2 -3 0.05 -2.13593e-15 5.86939e-16 0.000392699 
269 1 -1.73139e-22 -1.48972e-26 1.38101e-21 -3 -2 -3 0.05 -1.15255e-19 5.87163e-16 0.000392699 
273 1 3.95742e-25 -1.48588e-26 1.38124e-21 -2 -2 -3 0.05 4.42842e-16 8.02238e-16 0.000392699 
277 1 -1.73508e-22 -1.29349e-25 -1.35773e-21 -1 -2 -3 0.05 -1.09318e-15 -1.88902e-15 0.000392699 
262 1 -4.62809e-14 -1.06615e-24 1.37985e-21 -4.5 -1.5 -3 0.05 2.53496e-15 -2.8383e-15 0.000392711 
266 1 1.44645e-18 7.78346e-26 1.38055e-21 -3.5 -1.5 -3 0.05 4.24629e-19 -8.55274e-16 0.000392699 
270 1 -4.51026e-23 -3.92696e-25 1.37958e-21 -2.5 -1.5 -3 0.05 2.0299e-16 -8.54455e-16 0.000392699 
274 1 -1.1313e-24 -8.62482e-25 1.37852e-21 -1.5 -1.5 -3 0.05 -2.00969e-16 -6.75852e-16 0.000392699 
278 1 -2.55662e-21 -2.76269e-21 9.30799e-21 -0.5 -1.5 -3 0.05 7.67715e-15 -2.4345e-15 0.000392699 
281 1 8.46041e-14 2.51529e-22 -5.30226e-22 -5 -1 -3 0.05 -3.06624e-15 -2.02968e-15 0.000392746 
285 1 1.44722e-18 -5.34983e-22 -1.89823e-21 -4 -1 -3 0.05 -1.84928e-15 -2.60233e-15 0.000392699 
289 1 -1.73455e-22 -3.53747e-22 -1.89986e-21 -3 -1 -3 0.05 -5.21694e-21 -2.19506e-15 0.000392699 
293 1 4.05671e-26 -3.54065e-22 -1.89895e-21 -2 -1 -3 0.05 4.43019e-16 -1.97985e-15 0.000392699 
297 1 -1.14975e-21 -9.68943e-22 -4.64733e-21 -1 -1 -3 0.05 -1.89513e-15 -5.30711e-15 0.000392699 
282 1 -4.62809e-14 1.02089e-20 2.39218e-20 -4.5 -0.5 -3 0.05 3.45507e-15 3.37251e-15 0.000392711 
286 1 1.44696e-18 -8.97015e-22 9.7606e-21 -3.5 -0.5 -3 0.05 -1.17422e-17 9.34756e-15 0.000392699 
290 1 -4.6223e-23 -3.83988e-22 1.12935e-20 -2.5 -0.5 -3 0.05 -1.25078e-17 8.73765e-15 0.000392699 
294 1 -1.74091e-21 -1.64198e-21 1.0843e-20 -1.5 -0.5 -3 0.05 -1.45925e-15 8.59331e-15 0.000392699 
298 1 -3.56642e-21 1.74019e-21 1.78653e-20 -0.5 -0.5 -3 0.05 1.41289e-14 1.44943e-14 0.000392699 
203 1 -4.62729e-14 8.4602e-14 3.62043e-22 -4.5 -5 -2.5 0.05 1.06928e-15 -2.19816e-15 0.000392758 
204 1 8.4602e-14 -4.62729e-14 3.60612e-22 -5 -4.5 -2.5 0.05 7.09017e-16 2.44057e-16 0.000392758 
208 1 1.44426e-18 -4.62809e-14 3.61583e-22 -4 -4.5 -2.5 0.05 -2.96012e-15 2.33186e-15 0.000392711 
207 1 1.44552e-18 8.46041e-14 3.62804e-22 -3.5 -5 -2.5 0.05 -1.01647e-15 -2.08551e-15 0.000392746 
212 1 -1.72668e-22 -4.62809e-14 3.60572e-22 -3 -4.5 -2.5 0.05 -1.43501e-15 2.12813e-15 0.000392711 
211 1 -4.49657e-23 8.46041e-14 3.61634e-22 -2.5 -5 -2.5 0.05 -4.06909e-16 -2.08572e-15 0.000392746 
216 1 1.60967e-26 -4.62809e-14 3.59728e-22 -2 -4.5 -2.5 0.05 -8.47828e-16 2.12788e-15 0.000392711 
215 1 -1.68536e-25 8.46041e-14 3.62437e-22 -1.5 -5 -2.5 0.05 -9.66934e-16 -2.30121e-15 0.000392746 
220 1 -1.3623e-21 -4.62809e-14 -2.10901e-21 -1 -4.5 -2.5 0.05 -2.99875e-15 9.08571e-16 0.000392711 
219 1 -9.78954e-21 8.46041e-14 1.34375e-20 -0.5 -5 -2.5 0.05 4.26061e-15 -2.59939e-15 0.000392746 
223 1 -4.62809e-14 1.44426e-18 3.58499e-22 -4.5 -4 -2.5 0.05 1.11132e-15 -2.00288e-15 0.000392711 
227 1 1.44645e-18 1.44722e-18 3.60929e-22 -3.5 -4 -2.5 0.05 -6.09775e-16 -5.70213e-16 0.000392699 
231 1 -4.51144e-23 1.44722e-18 3.59819e-22 -2.5 -4 -2.5 0.05 -4.07149e-16 -5.69483e-16 0.000392699 
235 1 4.32109e-25 1.44722e-18 3.58079e-22 -1.5 -4 -2.5 0.05 -8.12055e-16 -6.78924e-16 0.000392699 
239 1 -3.82651e-21 1.45058e-18 8.73733e-21 -0.5 -4 -2.5 0.05 7.47554e-15 -1.02229e-15 0.000392699 
224 1 8.46041e-14 1.44552e-18 3.62516e-22 -5 -3.5 -2.5 0.05 -1.24883e-15 -6.09453e-16 0.000392746 
228 1 1.44722e-18 1.44645e-18 3.6024e-22 -4 -3.5 -2.5 0.05 -2.13609e-15 -4.06395e-16 0.000392699 
232 1 -1.73134e-22 1.44645e-18 3.61125e-22 -3 -3.5 -2.5 0.05 -1.50131e-19 -4.0613e-16 0.000392699 
236 1 3.68363e-25 1.44645e-18 3.61234e-22 -2 -3.5 -2.5 0.05 4.42807e-16 -1.91035e-16 0.000392699 
240 1 -1.73451e-22 1.44645e-18 -2.37692e-21 -1 -3.5 -2.5 0.05 -1.09296e-15 -2.882e-15 0.000392699 
243 1 -4.62809e-14 -1.73069e-22 3.60194e-22 -4.5 -3 -2.5 0.05 1.92489e-15 -8.23706e-16 0.000392711 
247 1 1.44645e-18 -1.73226e-22 3.61927e-22 -3.5 -3 -2.5 0.05 5.083e-19 -5.12264e-19 0.000392699 
251 1 -4.51147e-23 -1.73225e-22 3.61183e-22 -2.5 -3 -2.5 0.05 2.03049e-16 3.43605e-19 0.000392699 
255 1 -8.32701e-25 -1.73214e-22 3.59585e-22 -1.5 -3 -2.5 0.05 -2.01023e-16 1.78766e-16 0.000392699 
259 1 -2.77082e-22 -1.72947e-22 8.73765e-21 -0.5 -3 -2.5 0.05 7.67788e-15 -1.00451e-15 0.000392699 
244 1 8.46041e-14 -4.50057e-23 3.61979e-22 -5 -2.5 -2.5 0.05 -1.24848e-15 -4.06718e-16 0.000392746 
248 1 1.44722e-18 -4.50291e-23 3.60318e-22 -4 -2.5 -2.5 0.05 -2.13597e-15 2.02933e-16 0.000392699 
252 1 -1.73134e-22 -4.49949e-23 3.60957e-22 -3 -2.5 -2.5 0.05 -1.15267e-19 2.03199e-16 0.000392699 
256 1 4.00592e-25 -4.49949e-23 3.61188e-22 -2 -2.5 -2.5 0.05 4.42842e-16 4.18274e-16 0.000392699 
260 1 -1.73535e-22 -4.49611e-23 -2.37815e-21 -1 -2.5 -2.5 0.05 -1.09325e-15 -2.27305e-15 0.000392699 
263 1 -4.62809e-14 -1.27145e-25 3.58217e-22 -4.5 -2 -2.5 0.05 1.92472e-15 -2.3672e-16 0.000392711 
267 1 1.44645e-18 -1.0585e-25 3.61766e-22 -3.5 -2 -2.5 0.05 4.70163e-19 5.86283e-16 0.000392699 
271 1 -4.51146e-23 -9.9715e-27 3.61023e-22 -2.5 -2 -2.5 0.05 2.03011e-16 5.87139e-16 0.000392699 
275 1 -7.64835e-25 9.36628e-26 3.59459e-22 -1.5 -2 -2.5 0.05 -2.01061e-16 7.65575e-16 0.000392699 
279 1 -4.59289e-22 -1.81152e-22 7.6533e-21 -0.5 -2 -2.5 0.05 7.67793e-15 -4.17334e-16 0.000392699 
264 1 8.46041e-14 -8.7396e-25 3.61041e-22 -5 -1.5 -2.5 0.05 -1.46393e-15 -9.6678e-16 0.000392746 
268 1 1.44722e-18 -7.08144e-25 3.56416e-22 -4 -1.5 -2.5 0.05 -2.13611e-15 -8.54415e-16 0.000392699 
272 1 -1.73021e-22 -4.95122e-25 3.58776e-22 -3 -1.5 -2.5 0.05 -1.22061e-19 -8.54431e-16 0.000392699 
276 1 5.35864e-25 -2.69306e-25 3.59007e-22 -2 -1.5 -2.5 0.05 4.42835e-16 -6.39356e-16 0.000392699 
280 1 -2.37368e-22 5.3007e-25 -2.37983e-21 -1 -1.5 -2.5 0.05 -1.09314e-15 -3.33009e-15 0.000392699 
283 1 -4.62809e-14 -1.56657e-21 -2.92124e-21 -4.5 -1 -2.5 0.05 1.08193e-15 -1.82457e-15 0.000392711 
287 1 1.44645e-18 -3.54018e-22 -2.91843e-21 -3.5 -1 -2.5 0.05 4.46528e-19 -2.19597e-15 0.000392699 
291 1 -4.49788e-23 -3.5395e-22 -2.91983e-21 -2.5 -1 -2.5 0.05 2.03011e-16 -2.19509e-15 0.000392699 
295 1 6.18121e-27 -4.17508e-22 -2.92158e-21 -1.5 -1 -2.5 0.05 -2.00584e-16 -2.01652e-15 0.000392699 
299 1 8.30375e-21 1.28928e-21 1.61097e-20 -0.5 -1 -2.5 0.05 5.42358e-15 -3.74149e-15 0.000392699 
284 1 8.46041e-14 -7.58232e-21 7.03068e-21 -5 -0.5 -2.5 0.05 -2.18096e-15 3.38729e-15 0.000392746 
288 1 1.45065e-18 -2.28099e-21 8.73618e-21 -4 -0.5 -2.5 0.05 -1.13188e-15 8.73802e-15 0.000392699 
292 1 -1.73071e-22 -3.83792e-22 1.02714e-20 -3 -0.5 -2.5 0.05 -2.15863e-16 8.73782e-15 0.000392699 
296 1 -1.80262e-22 -5.65996e-22 9.18642e-21 -2 -0.5 -2.5 0.05 2.27145e-16 8.95338e-15 0.000392699 
300 1 8.48677e-22 4.27674e-21 1.81872e-20 -1 -0.5 -2.5 0.05 -1.51612e-15 4.51508e-15 0.000392699 
301 1 2.15522e-13 2.15522e-13 3.27119e-25 -5 -5 -2 0.05 -1.31754e-15 -9.53918e-16 0.000392758 
302 1 -4.62953e-14 -4.62953e-14 -1.03468e-24 -4.5 -4.5 -2 0.05 3.31441e-16 1.97269e-15 0.000392724 
305 1 -6.73313e-18 8.46001e-14 -4.13906e-25 -4 -5 -2 0.05 -2.33168e-15 -2.64509e-15 0.000392746 
306 1 1.44767e-18 -4.62809e-14 2.09612e-24 -3.5 -4.5 -2 0.05 -1.48562e-15 2.12759e-15 0.000392711 
309 1 2.09799e-22 8.46041e-14 1.4205e-24 -3 -5 -2 0.05 -6.60801e-16 -2.03491e-15 0.000392746 
310 1 -4.54758e-23 -4.62809e-14 2.49455e-24 -2.5 -4.5 -2 0.05 -1.28267e-15 2.12806e-15 0.000392711 