ITEM: TIMESTEP
1
ITEM: NUMBER OF ATOMS
4000
ITEM: BOX BOUNDS ff ff ff
-5 5
-5 5
-5 5
ITEM: ATOMS id type fx fy fz x y z radius mux muy muz 
1 1 1.92096e-14 1.92096e-14 -3.83187e-14 -5 -5 -5 0.05 5.20749e-08 5.20703e-08 0.000392699 
2 1 -4.62381e-14 -4.62381e-14 -1.69082e-13 -4.5 -4.5 -5 0.05 -9.48011e-12 -1.8683e-11 0.00039263 
3 1 -4.63018e-14 8.46036e-14 9.24854e-14 -4.5 -5 -4.5 0.05 -6.66565e-13 4.6559e-11 0.000392734 
4 1 8.46037e-14 -4.63018e-14 9.24854e-14 -5 -4.5 -4.5 0.05 3.73499e-11 8.53655e-12 0.000392734 
5 1 1.432e-18 -1.11642e-13 -1.0375e-13 -4 -5 -5 0.05 -9.2078e-12 5.20601e-08 0.000392669 
8 1 1.45776e-18 -4.63098e-14 9.24418e-14 -4 -4.5 -4.5 0.05 1.08477e-11 -5.26486e-12 0.000392687 
6 1 1.44994e-18 -4.62237e-14 -1.69103e-13 -3.5 -4.5 -5 0.05 -8.53926e-12 -9.48165e-12 0.000392617 
7 1 1.44902e-18 8.46058e-14 9.25027e-14 -3.5 -5 -4.5 0.05 8.53626e-12 3.73577e-11 0.000392722 
9 1 -1.13419e-21 -1.11638e-13 -1.03754e-13 -3 -5 -5 0.05 -1.08343e-11 5.20601e-08 0.000392669 
12 1 5.18611e-21 -4.63098e-14 9.24418e-14 -3 -4.5 -4.5 0.05 1.08425e-11 -5.26479e-12 0.000392687 
10 1 3.98477e-21 -4.62237e-14 -1.69103e-13 -2.5 -4.5 -5 0.05 -8.53877e-12 -9.48208e-12 0.000392617 
11 1 4.63575e-21 8.46058e-14 9.25027e-14 -2.5 -5 -4.5 0.05 8.53684e-12 3.7358e-11 0.000392722 
13 1 -9.16395e-22 -1.11638e-13 -1.03754e-13 -2 -5 -5 0.05 -1.08344e-11 5.20601e-08 0.000392669 
16 1 7.30057e-21 -4.63098e-14 9.24418e-14 -2 -4.5 -4.5 0.05 1.08425e-11 -5.26479e-12 0.000392687 
14 1 5.09869e-21 -4.62237e-14 -1.69103e-13 -1.5 -4.5 -5 0.05 -8.53877e-12 -9.48208e-12 0.000392617 
15 1 5.09055e-21 8.46058e-14 9.25027e-14 -1.5 -5 -4.5 0.05 8.53684e-12 3.7358e-11 0.000392722 
17 1 -3.49021e-18 -1.11638e-13 -1.03754e-13 -1 -5 -5 0.05 -7.58028e-12 5.20601e-08 0.000392669 
20 1 -1.44666e-18 -4.63098e-14 9.2448e-14 -1 -4.5 -4.5 0.05 4.337e-12 -5.26374e-12 0.000392687 
18 1 -5.67009e-17 -4.62526e-14 -1.69131e-13 -0.5 -4.5 -5 0.05 -5.28203e-12 -4.87981e-12 0.000392617 
19 1 -1.06126e-17 8.46017e-14 9.24735e-14 -0.5 -5 -4.5 0.05 -2.29457e-12 2.12598e-11 0.000392722 
21 1 -1.11642e-13 1.43659e-18 -1.0375e-13 -5 -4 -5 0.05 5.20555e-08 -9.2071e-12 0.000392669 
23 1 -4.63098e-14 1.46018e-18 9.24418e-14 -4.5 -4 -4.5 0.05 -6.60884e-13 1.54431e-11 0.000392687 
25 1 9.61058e-18 9.60181e-18 -1.69115e-13 -4 -4 -5 0.05 -9.2129e-12 -1.84137e-11 0.000392605 
27 1 1.44867e-18 1.45698e-18 9.24592e-14 -3.5 -4 -4.5 0.05 3.93579e-12 -6.6382e-13 0.000392675 
29 1 -4.13056e-21 9.6068e-18 -1.69119e-13 -3 -4 -5 0.05 -1.31369e-11 -1.15119e-11 0.000392605 
31 1 3.22888e-21 1.45928e-18 9.24592e-14 -2.5 -4 -4.5 0.05 3.93656e-12 -6.64502e-13 0.000392675 
33 1 -3.70994e-21 9.60716e-18 -1.69119e-13 -2 -4 -5 0.05 -1.31373e-11 -1.15117e-11 0.000392605 
35 1 -7.80031e-22 1.45536e-18 9.24592e-14 -1.5 -4 -4.5 0.05 3.93687e-12 -6.63174e-13 0.000392675 
37 1 -7.57815e-18 9.60884e-18 -1.69119e-13 -1 -4 -5 0.05 -5.28214e-12 -1.1514e-11 0.000392605 
39 1 1.5435e-17 -1.59008e-17 9.24675e-14 -0.5 -4 -4.5 0.05 -2.0698e-11 -5.26797e-12 0.000392675 
22 1 -4.62237e-14 1.45352e-18 -1.69103e-13 -4.5 -3.5 -5 0.05 -1.40808e-11 -1.77404e-11 0.000392617 
24 1 8.46058e-14 1.44897e-18 9.25027e-14 -5 -3.5 -4.5 0.05 3.27523e-11 8.53643e-12 0.000392722 
28 1 1.45516e-18 1.45341e-18 9.24592e-14 -4 -3.5 -4.5 0.05 3.94214e-12 3.93618e-12 0.000392675 
26 1 1.4435e-18 1.43936e-18 -1.69123e-13 -3.5 -3.5 -5 0.05 -1.31386e-11 -1.31366e-11 0.000392605 
32 1 3.74085e-21 1.45035e-18 9.24592e-14 -3 -3.5 -4.5 0.05 3.93569e-12 3.93523e-12 0.000392675 
30 1 -1.43619e-21 1.43936e-18 -1.69123e-13 -2.5 -3.5 -5 0.05 -1.31373e-11 -1.31368e-11 0.000392605 
36 1 4.8978e-21 1.45034e-18 9.24592e-14 -2 -3.5 -4.5 0.05 3.93569e-12 3.93523e-12 0.000392675 
34 1 9.76865e-22 1.43949e-18 -1.69123e-13 -1.5 -3.5 -5 0.05 -1.31376e-11 -1.31374e-11 0.000392605 
40 1 -1.44997e-18 1.46029e-18 9.24653e-14 -1 -3.5 -4.5 0.05 -2.5697e-12 3.93911e-12 0.000392675 
38 1 -6.62063e-17 -1.59066e-17 -1.69151e-13 -0.5 -3.5 -5 0.05 -6.7859e-13 -3.9308e-12 0.000392605 
41 1 -1.11638e-13 -4.20042e-21 -1.03754e-13 -5 -3 -5 0.05 5.20555e-08 -1.08325e-11 0.000392669 
43 1 -4.63098e-14 1.11827e-20 9.24418e-14 -4.5 -3 -4.5 0.05 -6.63222e-13 2.00429e-11 0.000392687 
45 1 9.61084e-18 -8.86111e-21 -1.69119e-13 -4 -3 -5 0.05 -9.21202e-12 -2.00391e-11 0.000392605 
47 1 1.44944e-18 1.62081e-21 9.24592e-14 -3.5 -3 -4.5 0.05 3.93506e-12 3.93637e-12 0.000392675 
49 1 -1.83008e-21 -2.00934e-21 -1.69123e-13 -3 -3 -5 0.05 -1.31365e-11 -1.31371e-11 0.000392605 
51 1 3.99625e-21 3.92069e-21 9.24592e-14 -2.5 -3 -4.5 0.05 3.93583e-12 3.93569e-12 0.000392675 
53 1 -1.04858e-21 -2.00943e-21 -1.69123e-13 -2 -3 -5 0.05 -1.3137e-11 -1.31368e-11 0.000392605 
55 1 -8.53589e-22 1.61932e-21 9.24592e-14 -1.5 -3 -4.5 0.05 3.93614e-12 3.93673e-12 0.000392675 
57 1 -7.57559e-18 2.46637e-22 -1.69123e-13 -1 -3 -5 0.05 -5.2822e-12 -1.31407e-11 0.000392605 
59 1 1.54304e-17 -1.73558e-17 9.24675e-14 -0.5 -3 -4.5 0.05 -2.06976e-11 -5.26965e-12 0.000392675 
42 1 -4.62237e-14 1.11999e-20 -1.69103e-13 -4.5 -2.5 -5 0.05 -1.40805e-11 -1.77404e-11 0.000392617 
44 1 8.46058e-14 1.56714e-21 9.25027e-14 -5 -2.5 -4.5 0.05 3.2752e-11 8.53623e-12 0.000392722 
48 1 1.45516e-18 6.93326e-21 9.24592e-14 -4 -2.5 -4.5 0.05 3.94228e-12 3.93678e-12 0.000392675 
46 1 1.4435e-18 -1.56294e-21 -1.69123e-13 -3.5 -2.5 -5 0.05 -1.31383e-11 -1.31368e-11 0.000392605 
52 1 3.74106e-21 3.86851e-21 9.24592e-14 -3 -2.5 -4.5 0.05 3.93583e-12 3.93583e-12 0.000392675 
50 1 -1.43584e-21 -1.56334e-21 -1.69123e-13 -2.5 -2.5 -5 0.05 -1.3137e-11 -1.3137e-11 0.000392605 
56 1 4.89824e-21 3.86796e-21 9.24592e-14 -2 -2.5 -4.5 0.05 3.93583e-12 3.93583e-12 0.000392675 
54 1 9.77407e-22 -1.56376e-21 -1.69123e-13 -1.5 -2.5 -5 0.05 -1.31373e-11 -1.31376e-11 0.000392605 
60 1 -1.45048e-18 1.45598e-20 9.24653e-14 -1 -2.5 -4.5 0.05 -2.56894e-12 3.93992e-12 0.000392675 
58 1 -6.62062e-17 -1.73507e-17 -1.69151e-13 -0.5 -2.5 -5 0.05 -6.78124e-13 -3.93214e-12 0.000392605 
61 1 -1.11638e-13 -3.98298e-21 -1.03754e-13 -5 -2 -5 0.05 5.20555e-08 -1.08326e-11 0.000392669 
63 1 -4.63098e-14 1.26503e-20 9.24418e-14 -4.5 -2 -4.5 0.05 -6.63223e-13 2.0043e-11 0.000392687 
65 1 9.61084e-18 -8.26113e-21 -1.69119e-13 -4 -2 -5 0.05 -9.21202e-12 -2.00392e-11 0.000392605 
67 1 1.44944e-18 2.96084e-21 9.24592e-14 -3.5 -2 -4.5 0.05 3.93506e-12 3.93651e-12 0.000392675 
69 1 -1.83013e-21 -1.40956e-21 -1.69123e-13 -3 -2 -5 0.05 -1.31365e-11 -1.31372e-11 0.000392605 
71 1 3.99632e-21 5.26073e-21 9.24592e-14 -2.5 -2 -4.5 0.05 3.93583e-12 3.93583e-12 0.000392675 
73 1 -1.04865e-21 -1.40961e-21 -1.69123e-13 -2 -2 -5 0.05 -1.3137e-11 -1.3137e-11 0.000392605 
75 1 -8.53374e-22 2.95912e-21 9.24592e-14 -1.5 -2 -4.5 0.05 3.93614e-12 3.93687e-12 0.000392675 
77 1 -7.57559e-18 8.46988e-22 -1.69123e-13 -1 -2 -5 0.05 -5.2822e-12 -1.31408e-11 0.000392605 
79 1 1.54304e-17 -1.73544e-17 9.24675e-14 -0.5 -2 -4.5 0.05 -2.06976e-11 -5.26965e-12 0.000392675 
62 1 -4.62237e-14 1.20713e-20 -1.69103e-13 -4.5 -1.5 -5 0.05 -1.40805e-11 -1.77404e-11 0.000392617 
64 1 8.46058e-14 2.18997e-21 9.25027e-14 -5 -1.5 -4.5 0.05 3.2752e-11 8.53623e-12 0.000392722 
68 1 1.4548e-18 7.5411e-21 9.24592e-14 -4 -1.5 -4.5 0.05 3.94228e-12 3.93678e-12 0.000392675 
66 1 1.4435e-18 3.07953e-23 -1.69123e-13 -3.5 -1.5 -5 0.05 -1.31383e-11 -1.31368e-11 0.000392605 
72 1 3.74065e-21 3.75333e-21 9.24592e-14 -3 -1.5 -4.5 0.05 3.93583e-12 3.93583e-12 0.000392675 
70 1 -1.43568e-21 3.02879e-23 -1.69123e-13 -2.5 -1.5 -5 0.05 -1.3137e-11 -1.3137e-11 0.000392605 
76 1 4.89781e-21 3.75283e-21 9.24592e-14 -2 -1.5 -4.5 0.05 3.93583e-12 3.93583e-12 0.000392675 
74 1 9.77594e-22 2.99385e-23 -1.69123e-13 -1.5 -1.5 -5 0.05 -1.31373e-11 -1.31376e-11 0.000392605 
80 1 -1.45084e-18 1.37217e-20 9.24653e-14 -1 -1.5 -4.5 0.05 -2.56894e-12 3.93992e-12 0.000392675 
78 1 -6.62065e-17 -1.73488e-17 -1.69151e-13 -0.5 -1.5 -5 0.05 -6.78124e-13 -3.93214e-12 0.000392605 
81 1 -1.11638e-13 -3.49559e-18 -1.03754e-13 -5 -1 -5 0.05 5.20555e-08 -7.57847e-12 0.000392669 
83 1 -4.63098e-14 -5.52658e-18 9.2448e-14 -4.5 -1 -4.5 0.05 -6.63926e-13 1.35363e-11 0.000392687 
85 1 9.61189e-18 -7.58729e-18 -1.69119e-13 -4 -1 -5 0.05 -9.21232e-12 -1.67848e-11 0.000392605 
87 1 1.44983e-18 -1.44715e-18 9.24653e-14 -3.5 -1 -4.5 0.05 3.93464e-12 -2.57101e-12 0.000392675 
89 1 -1.83015e-21 -7.57796e-18 -1.69123e-13 -3 -1 -5 0.05 -1.31371e-11 -9.88191e-12 0.000392605 
91 1 5.53137e-21 -1.446e-18 9.24653e-14 -2.5 -1 -4.5 0.05 3.93542e-12 -2.57169e-12 0.000392675 
93 1 -1.04839e-21 -7.57796e-18 -1.69123e-13 -2 -1 -5 0.05 -1.31376e-11 -9.88169e-12 0.000392605 
95 1 -4.68475e-22 -1.44945e-18 9.24653e-14 -1.5 -1 -4.5 0.05 3.93572e-12 -2.57065e-12 0.000392675 
97 1 -7.575e-18 -7.57431e-18 -1.69123e-13 -1 -1 -5 0.05 -5.28279e-12 -9.88555e-12 0.000392605 
99 1 1.5422e-17 -1.88171e-17 9.24736e-14 -0.5 -1 -4.5 0.05 -2.06978e-11 -1.17778e-11 0.000392675 
82 1 -4.62526e-14 -3.93512e-17 -1.69137e-13 -4.5 -0.5 -5 0.05 -1.40826e-11 -5.28134e-12 0.000392617 
84 1 8.45902e-14 -1.80937e-17 9.24735e-14 -5 -0.5 -4.5 0.05 1.66545e-11 -2.29378e-12 0.000392722 
88 1 -4.33449e-18 -2.22933e-19 9.24675e-14 -4 -0.5 -4.5 0.05 3.9372e-12 -1.60974e-11 0.000392675 
86 1 -1.58955e-17 -7.02996e-17 -1.69151e-13 -3.5 -0.5 -5 0.05 -1.3133e-11 -5.27986e-12 0.000392605 
92 1 -1.73461e-17 1.13342e-17 9.24675e-14 -3 -0.5 -4.5 0.05 3.93319e-12 -1.60962e-11 0.000392675 
90 1 -1.73434e-17 -7.02977e-17 -1.69151e-13 -2.5 -0.5 -5 0.05 -1.31337e-11 -5.27972e-12 0.000392605 
96 1 -1.7345e-17 1.13335e-17 9.24675e-14 -2 -0.5 -4.5 0.05 3.93319e-12 -1.60962e-11 0.000392675 
94 1 -1.73402e-17 -7.02981e-17 -1.69151e-13 -1.5 -0.5 -5 0.05 -1.31341e-11 -5.28033e-12 0.000392605 
100 1 -1.88088e-17 1.13357e-17 9.24736e-14 -1 -0.5 -4.5 0.05 -2.57341e-12 -1.60937e-11 0.000392675 
98 1 -7.20005e-17 -7.60985e-17 -1.69214e-13 -0.5 -0.5 -5 0.05 -6.76451e-13 -6.78307e-13 0.000392605 
101 1 2.15516e-13 2.15516e-13 5.79106e-18 -5 -5 -4 0.05 1.17737e-11 7.17019e-12 0.000392758 
102 1 -4.62953e-14 -4.62953e-14 5.76445e-18 -4.5 -4.5 -4 0.05 9.20532e-12 -4.61982e-16 0.000392724 
105 1 -6.75195e-18 8.4594e-14 5.79901e-18 -4 -5 -4 0.05 -4.59921e-12 1.86687e-11 0.000392746 
106 1 1.44748e-18 -4.62809e-14 5.77552e-18 -3.5 -4.5 -4 0.05 6.90294e-12 -2.29877e-12 0.000392711 
109 1 -8.10738e-21 8.4598e-14 5.78714e-18 -3 -5 -4 0.05 2.69998e-16 1.86692e-11 0.000392746 
110 1 -1.70937e-21 -4.62809e-14 5.7764e-18 -2.5 -4.5 -4 0.05 6.90302e-12 -2.29844e-12 0.000392711 
113 1 -7.57734e-21 8.4598e-14 5.78824e-18 -2 -5 -4 0.05 4.13776e-16 1.86692e-11 0.000392746 
114 1 1.09789e-21 -4.62809e-14 5.77547e-18 -1.5 -4.5 -4 0.05 1.01544e-11 -2.29891e-12 0.000392711 
117 1 -1.46135e-18 8.4598e-14 1.1917e-17 -1 -5 -4 0.05 -9.51245e-13 2.55712e-11 0.000392746 
118 1 1.43093e-18 -4.62693e-14 -3.18127e-17 -0.5 -4.5 -4 0.05 -1.70438e-11 -2.29525e-12 0.000392711 
121 1 8.45939e-14 -6.74764e-18 5.78597e-18 -5 -4 -4 0.05 1.40684e-11 1.20886e-15 0.000392746 
125 1 1.44287e-18 1.44418e-18 5.79992e-18 -4 -4 -4 0.05 4.73018e-15 -4.59872e-12 0.000392699 
129 1 -3.03172e-21 1.44021e-18 5.79582e-18 -3 -4 -4 0.05 4.6061e-16 -4.59865e-12 0.000392699 
133 1 -2.66154e-21 1.44058e-18 5.79476e-18 -2 -4 -4 0.05 6.04403e-16 -4.59886e-12 0.000392699 
137 1 -3.49989e-18 1.43903e-18 1.1923e-17 -1 -4 -4 0.05 3.65143e-12 2.30698e-12 0.000392699 
122 1 -4.62809e-14 1.43616e-18 5.77949e-18 -4.5 -3.5 -4 0.05 -2.29865e-12 6.90227e-12 0.000392711 
126 1 1.4445e-18 1.44447e-18 5.78837e-18 -3.5 -3.5 -4 0.05 -7.96321e-16 4.2128e-17 0.000392699 
130 1 -2.84027e-21 1.44447e-18 5.78826e-18 -2.5 -3.5 -4 0.05 -3.65204e-16 4.17881e-17 0.000392699 
134 1 1.33219e-21 1.4423e-18 5.78692e-18 -1.5 -3.5 -4 0.05 3.24927e-12 -2.81166e-16 0.000392699 
138 1 -2.47292e-19 1.87994e-17 -1.44617e-17 -0.5 -3.5 -4 0.05 -1.93437e-11 -4.60038e-12 0.000392699 
141 1 8.4598e-14 -5.22186e-21 5.78768e-18 -5 -3 -4 0.05 1.40678e-11 -3.99574e-16 0.000392746 
145 1 1.44151e-18 -5.98076e-22 5.79094e-18 -4 -3 -4 0.05 4.64643e-15 -8.91169e-16 0.000392699 
149 1 -3.03204e-21 -2.85092e-21 5.78684e-18 -3 -3 -4 0.05 -1.49314e-16 -2.9356e-16 0.000392699 
153 1 -2.30131e-21 -2.85095e-21 5.78578e-18 -2 -3 -4 0.05 -5.63776e-18 -5.08569e-16 0.000392699 
157 1 -3.50165e-18 1.6685e-22 1.1908e-17 -1 -3 -4 0.05 3.651e-12 6.90433e-12 0.000392699 
142 1 -4.62809e-14 -1.19928e-20 5.77686e-18 -4.5 -2.5 -4 0.05 -2.29875e-12 6.90242e-12 0.000392711 
146 1 1.4445e-18 -2.96884e-21 5.78673e-18 -3.5 -2.5 -4 0.05 -5.80664e-16 -1.49184e-16 0.000392699 
150 1 -2.8403e-21 -2.96849e-21 5.78662e-18 -2.5 -2.5 -4 0.05 -1.49471e-16 -1.49599e-16 0.000392699 
154 1 1.3323e-21 -5.2694e-21 5.78527e-18 -1.5 -2.5 -4 0.05 3.24948e-12 -4.72619e-16 0.000392699 
158 1 -2.48592e-19 1.73522e-17 -1.44603e-17 -0.5 -2.5 -4 0.05 -1.93434e-11 -4.6003e-12 0.000392699 
161 1 8.4598e-14 -4.50986e-21 5.78824e-18 -5 -2 -4 0.05 1.40678e-11 -3.9959e-16 0.000392746 
165 1 1.44151e-18 -4.63446e-23 5.79069e-18 -4 -2 -4 0.05 4.64647e-15 -7.47321e-16 0.000392699 
169 1 -3.03207e-21 -2.29928e-21 5.78659e-18 -3 -2 -4 0.05 -1.49269e-16 -1.49637e-16 0.000392699 
173 1 -2.30136e-21 -2.29926e-21 5.78553e-18 -2 -2 -4 0.05 -5.59329e-18 -3.64646e-16 0.000392699 
177 1 -3.50165e-18 7.18422e-22 1.19078e-17 -1 -2 -4 0.05 3.651e-12 6.90447e-12 0.000392699 
162 1 -4.62809e-14 -9.66968e-21 5.77845e-18 -4.5 -1.5 -4 0.05 -2.2989e-12 1.01544e-11 0.000392711 
166 1 1.4445e-18 2.88871e-22 5.78525e-18 -3.5 -1.5 -4 0.05 -7.24428e-16 3.25136e-12 0.000392699 
170 1 -2.84057e-21 2.8907e-22 5.78514e-18 -2.5 -1.5 -4 0.05 -2.93236e-16 3.25136e-12 0.000392699 
174 1 1.33191e-21 -2.01197e-21 5.7838e-18 -1.5 -1.5 -4 0.05 3.24934e-12 3.25103e-12 0.000392699 
178 1 -2.46043e-19 1.73604e-17 -1.44606e-17 -0.5 -1.5 -4 0.05 -1.93436e-11 -1.34865e-12 0.000392699 
181 1 8.4598e-14 -1.46309e-18 1.19172e-17 -5 -1 -4 0.05 2.097e-11 -9.5091e-13 0.000392746 
185 1 1.44344e-18 -3.50906e-18 1.19149e-17 -4 -1 -4 0.05 4.62221e-15 1.34979e-12 0.000392699 
189 1 -3.03231e-21 -3.50692e-18 1.191e-17 -3 -1 -4 0.05 1.13861e-16 1.34976e-12 0.000392699 
193 1 -2.30149e-21 -3.50692e-18 1.19089e-17 -2 -1 -4 0.05 2.5753e-16 1.34955e-12 0.000392699 
197 1 -3.49944e-18 -3.50007e-18 1.80335e-17 -1 -1 -4 0.05 3.65165e-12 8.25461e-12 0.000392699 
182 1 -4.62693e-14 3.61385e-17 -3.18245e-17 -4.5 -0.5 -4 0.05 -6.89888e-12 -1.24415e-11 0.000392711 
186 1 1.8796e-17 -4.33871e-18 -1.44642e-17 -3.5 -0.5 -4 0.05 -4.60149e-12 -1.93474e-11 0.000392699 
190 1 1.73443e-17 -4.33675e-18 -1.44653e-17 -2.5 -0.5 -4 0.05 -4.60086e-12 -1.93468e-11 0.000392699 
194 1 1.73544e-17 -4.33657e-18 -1.4463e-17 -1.5 -0.5 -4 0.05 -1.35061e-12 -1.93468e-11 0.000392699 
198 1 -6.87226e-18 -1.09656e-17 -2.89131e-17 -0.5 -0.5 -4 0.05 -2.39537e-11 -2.85576e-11 0.000392699 
103 1 -4.62729e-14 8.4602e-14 5.77281e-18 -4.5 -5 -3.5 0.05 -6.90273e-12 2.39524e-11 0.000392758 
104 1 8.4602e-14 -4.62729e-14 5.79388e-18 -5 -4.5 -3.5 0.05 1.70477e-11 -4.60095e-12 0.000392758 
108 1 1.44273e-18 -4.62809e-14 5.75802e-18 -4 -4.5 -3.5 0.05 6.90836e-12 -2.29815e-12 0.000392711 
107 1 1.44634e-18 8.46041e-14 5.78549e-18 -3.5 -5 -3.5 0.05 -7.48861e-16 1.70505e-11 0.000392746 
112 1 2.92435e-22 -4.62809e-14 5.76219e-18 -3 -4.5 -3.5 0.05 6.90396e-12 -2.29768e-12 0.000392711 
111 1 8.96046e-22 8.46041e-14 5.78132e-18 -2.5 -5 -3.5 0.05 -3.89582e-16 1.70507e-11 0.000392746 
116 1 2.65936e-22 -4.62809e-14 5.76312e-18 -2 -4.5 -3.5 0.05 6.90432e-12 -2.29768e-12 0.000392711 
115 1 5.44954e-21 8.46041e-14 5.7819e-18 -1.5 -5 -3.5 0.05 3.2518e-12 1.70507e-11 0.000392746 
120 1 -3.49589e-18 -4.62809e-14 1.18778e-17 -1 -4.5 -3.5 0.05 8.25091e-12 -2.29801e-12 0.000392711 
119 1 -1.09923e-18 8.45943e-14 -2.89183e-17 -0.5 -5 -3.5 0.05 -1.24495e-11 1.24526e-11 0.000392746 
123 1 -4.62809e-14 1.44065e-18 5.77219e-18 -4.5 -4 -3.5 0.05 -2.29726e-12 2.30259e-12 0.000392711 
127 1 1.44782e-18 1.44331e-18 5.77389e-18 -3.5 -4 -3.5 0.05 -1.38266e-16 -4.59953e-12 0.000392699 
131 1 4.82093e-22 1.44331e-18 5.77378e-18 -2.5 -4 -3.5 0.05 2.92629e-16 -4.59953e-12 0.000392699 
135 1 1.74125e-21 1.44272e-18 5.77653e-18 -1.5 -4 -3.5 0.05 3.25121e-12 -4.59942e-12 0.000392699 
139 1 8.42478e-18 1.44686e-18 -1.15709e-17 -0.5 -4 -3.5 0.05 -2.16478e-11 3.18733e-15 0.000392699 
124 1 8.46041e-14 1.448e-18 5.77809e-18 -5 -3.5 -3.5 0.05 1.24488e-11 -4.01718e-16 0.000392746 
128 1 1.44488e-18 1.4478e-18 5.77488e-18 -4 -3.5 -3.5 0.05 3.95038e-15 -3.41972e-16 0.000392699 
132 1 2.90655e-22 1.4478e-18 5.77265e-18 -3 -3.5 -3.5 0.05 -5.33196e-16 -1.2626e-16 0.000392699 
136 1 -3.31229e-22 1.4478e-18 5.7733e-18 -2 -3.5 -3.5 0.05 -3.05212e-17 -3.41469e-16 0.000392699 
140 1 -3.49244e-18 1.44507e-18 1.18987e-17 -1 -3.5 -3.5 0.05 3.64547e-12 6.90464e-12 0.000392699 
143 1 -4.62809e-14 1.55661e-21 5.7658e-18 -4.5 -3 -3.5 0.05 -2.29734e-12 6.90195e-12 0.000392711 
147 1 1.44782e-18 4.71714e-22 5.77058e-18 -3.5 -3 -3.5 0.05 -7.48534e-16 -4.60876e-16 0.000392699 
151 1 4.82656e-22 4.7176e-22 5.77046e-18 -2.5 -3 -3.5 0.05 -3.17649e-16 -4.61725e-16 0.000392699 
155 1 1.92346e-21 4.72212e-22 5.77474e-18 -1.5 -3 -3.5 0.05 3.24938e-12 -6.40453e-16 0.000392699 
159 1 8.4214e-18 4.34734e-21 -1.15686e-17 -0.5 -3 -3.5 0.05 -2.16467e-11 -4.22488e-17 0.000392699 
144 1 8.46041e-14 8.97053e-22 5.77979e-18 -5 -2.5 -3.5 0.05 1.24485e-11 -3.8976e-16 0.000392746 
148 1 1.44488e-18 3.54837e-22 5.77324e-18 -4 -2.5 -3.5 0.05 4.16616e-15 -5.33348e-16 0.000392699 
152 1 2.90647e-22 3.54432e-22 5.77101e-18 -3 -2.5 -3.5 0.05 -3.17428e-16 -3.17752e-16 0.000392699 
156 1 -3.31161e-22 3.54409e-22 5.77166e-18 -2 -2.5 -3.5 0.05 1.85228e-16 -5.3278e-16 0.000392699 
160 1 -3.49295e-18 -1.99157e-21 1.18964e-17 -1 -2.5 -3.5 0.05 3.64608e-12 6.90508e-12 0.000392699 
163 1 -4.62809e-14 8.80993e-22 5.76727e-18 -4.5 -2 -3.5 0.05 -2.29734e-12 6.90245e-12 0.000392711 
167 1 1.44782e-18 -3.31217e-22 5.77204e-18 -3.5 -2 -3.5 0.05 -7.4847e-16 4.21783e-17 0.000392699 
171 1 4.82608e-22 -3.31163e-22 5.77193e-18 -2.5 -2 -3.5 0.05 -3.17586e-16 4.13298e-17 0.000392699 
175 1 1.92351e-21 -3.30855e-22 5.77621e-18 -1.5 -2 -3.5 0.05 3.24938e-12 -1.37472e-16 0.000392699 
179 1 8.42158e-18 3.77981e-21 -1.15666e-17 -0.5 -2 -3.5 0.05 -2.16467e-11 3.16734e-16 0.000392699 
164 1 8.46041e-14 5.61808e-21 5.78036e-18 -5 -1.5 -3.5 0.05 1.24485e-11 3.2518e-12 0.000392746 
168 1 1.44452e-18 4.28563e-21 5.77675e-18 -4 -1.5 -3.5 0.05 4.16606e-15 3.25073e-12 0.000392699 
172 1 2.90901e-22 3.5628e-21 5.77452e-18 -3 -1.5 -3.5 0.05 -3.17512e-16 3.25095e-12 0.000392699 
176 1 -3.3093e-22 3.56283e-21 5.77517e-18 -2 -1.5 -3.5 0.05 1.85145e-16 3.25073e-12 0.000392699 
180 1 -3.49325e-18 4.93475e-22 1.18999e-17 -1 -1.5 -3.5 0.05 3.64608e-12 1.01563e-11 0.000392699 
183 1 -4.62809e-14 -7.57865e-18 1.18828e-17 -4.5 -1 -3.5 0.05 -2.29836e-12 8.24889e-12 0.000392711 
187 1 1.44513e-18 -3.49346e-18 1.18977e-17 -3.5 -1 -3.5 0.05 -3.41812e-16 1.34566e-12 0.000392699 
191 1 -1.05083e-21 -3.49461e-18 1.18976e-17 -2.5 -1 -3.5 0.05 8.90971e-17 1.34566e-12 0.000392699 
195 1 -7.6073e-22 -3.49569e-18 1.19019e-17 -1.5 -1 -3.5 0.05 3.24979e-12 1.34548e-12 0.000392699 
199 1 1.41932e-17 4.33068e-18 -2.28021e-17 -0.5 -1 -3.5 0.05 -2.1644e-11 1.34607e-12 0.000392699 
184 1 8.45827e-14 -8.58125e-18 -2.89175e-17 -5 -0.5 -3.5 0.05 7.85021e-12 -1.24492e-11 0.000392746 
188 1 1.30118e-17 -7.23118e-18 -1.15619e-17 -4 -0.5 -3.5 0.05 3.04339e-15 -2.16504e-11 0.000392699 
192 1 4.70989e-21 4.33123e-18 -1.15683e-17 -3 -0.5 -3.5 0.05 -6.5225e-16 -2.16493e-11 0.000392699 
196 1 4.26844e-21 4.33069e-18 -1.15665e-17 -2 -0.5 -3.5 0.05 -1.49461e-16 -2.16495e-11 0.000392699 
200 1 4.33557e-18 1.01053e-17 -2.28046e-17 -1 -0.5 -3.5 0.05 3.64595e-12 -1.47421e-11 0.000392699 
201 1 2.15522e-13 2.15522e-13 -4.54126e-21 -5 -5 -3 0.05 1.01514e-11 5.54751e-12 0.000392758 
202 1 -4.62953e-14 -4.62953e-14 -1.49847e-20 -4.5 -4.5 -3 0.05 9.20788e-12 9.82929e-16 0.000392724 
205 1 -6.74176e-18 8.46001e-14 1.26741e-20 -4 -5 -3 0.05 -4.60023e-12 1.70505e-11 0.000392746 
206 1 1.44908e-18 -4.62809e-14 -6.82673e-21 -3.5 -4.5 -3 0.05 6.90427e-12 -2.29847e-12 0.000392711 
209 1 3.92558e-22 8.46041e-14 4.03458e-21 -3 -5 -3 0.05 7.17672e-17 1.70508e-11 0.000392746 
210 1 -1.09492e-22 -4.62809e-14 -5.94509e-21 -2.5 -4.5 -3 0.05 6.90435e-12 -2.29815e-12 0.000392711 
213 1 -4.32019e-22 8.46041e-14 6.8568e-21 -2 -5 -3 0.05 5.74833e-16 1.70508e-11 0.000392746 
214 1 3.03656e-21 -4.62809e-14 -2.02144e-21 -1.5 -4.5 -3 0.05 1.01552e-11 -2.29847e-12 0.000392711 
217 1 -1.44607e-18 8.46042e-14 6.13281e-18 -1 -5 -3 0.05 -9.55152e-13 2.39508e-11 0.000392746 
218 1 1.01044e-17 -4.62867e-14 -3.46994e-17 -0.5 -4.5 -3 0.05 -1.93468e-11 2.30608e-12 0.000392711 
221 1 8.46001e-14 -6.73729e-18 2.16144e-21 -5 -4 -3 0.05 1.24492e-11 7.56429e-16 0.000392746 
225 1 1.44577e-18 1.44456e-18 6.38767e-21 -4 -4 -3 0.05 4.56782e-15 -4.5989e-12 0.000392699 
229 1 -1.7325e-22 1.44285e-18 4.15666e-21 -3 -4 -3 0.05 6.10467e-16 -4.59922e-12 0.000392699 
233 1 -1.15674e-21 1.44321e-18 4.80995e-21 -2 -4 -3 0.05 1.11339e-15 -4.59943e-12 0.000392699 
237 1 -3.48982e-18 1.44056e-18 6.13832e-18 -1 -4 -3 0.05 3.64634e-12 2.30645e-12 0.000392699 
222 1 -4.62809e-14 1.44804e-18 -2.42317e-22 -4.5 -3.5 -3 0.05 -2.29742e-12 6.90276e-12 0.000392711 
226 1 1.44735e-18 1.44733e-18 2.37115e-21 -3.5 -3.5 -3 0.05 -6.46513e-16 1.92083e-16 0.000392699 
230 1 1.8816e-23 1.44733e-18 2.26061e-21 -2.5 -3.5 -3 0.05 -2.15509e-16 1.91448e-16 0.000392699 
234 1 1.84565e-21 1.44746e-18 6.4081e-21 -1.5 -3.5 -3 0.05 3.24928e-12 1.28441e-17 0.000392699 
238 1 8.42743e-18 1.44599e-18 -1.73465e-17 -0.5 -3.5 -3 0.05 -2.16478e-11 5.98229e-16 0.000392699 
241 1 8.46041e-14 2.10132e-22 3.04252e-21 -5 -3 -3 0.05 1.24486e-11 2.15547e-16 0.000392746 
245 1 1.44442e-18 7.83306e-24 3.07139e-21 -4 -3 -3 0.05 4.4839e-15 -3.59347e-16 0.000392699 
249 1 -1.72994e-22 8.11951e-24 8.40248e-22 -3 -3 -3 0.05 2.75032e-19 -1.4394e-16 0.000392699 
253 1 -7.94786e-22 8.07449e-24 1.49297e-21 -2 -3 -3 0.05 5.02988e-16 -3.5881e-16 0.000392699 
257 1 -3.49081e-18 7.55931e-24 6.12504e-18 -1 -3 -3 0.05 3.6457e-12 6.90442e-12 0.000392699 
242 1 -4.62809e-14 -1.09125e-22 -2.87744e-21 -4.5 -2.5 -3 0.05 -2.29753e-12 6.90291e-12 0.000392711 
246 1 1.44735e-18 -1.09481e-22 7.26592e-22 -3.5 -2.5 -3 0.05 -4.30821e-16 7.8431e-19 0.000392699 
250 1 1.87439e-23 -1.09481e-22 6.16051e-22 -2.5 -2.5 -3 0.05 2.58151e-19 7.34475e-20 0.000392699 
254 1 1.84523e-21 -1.09226e-22 4.76388e-21 -1.5 -2.5 -3 0.05 3.2495e-12 -1.78558e-16 0.000392699 
258 1 8.42613e-18 -1.19281e-21 -1.73451e-17 -0.5 -2.5 -3 0.05 -2.16475e-11 6.81708e-16 0.000392699 
261 1 8.46041e-14 -4.32368e-22 5.3227e-21 -5 -2 -3 0.05 1.24486e-11 5.74792e-16 0.000392746 
265 1 1.44442e-18 -7.94353e-22 4.53791e-21 -4 -2 -3 0.05 4.48393e-15 1.43594e-16 0.000392699 
269 1 -1.72994e-22 -7.9415e-22 2.30704e-21 -3 -2 -3 0.05 3.13221e-19 3.59077e-16 0.000392699 
273 1 -7.94809e-22 -7.9415e-22 2.95976e-21 -2 -2 -3 0.05 5.03027e-16 1.44206e-16 0.000392699 
277 1 -3.49081e-18 -7.94942e-22 6.1265e-18 -1 -2 -3 0.05 3.6457e-12 6.90492e-12 0.000392699 
262 1 -4.62809e-14 2.55204e-21 3.57066e-21 -4.5 -1.5 -3 0.05 -2.29753e-12 1.01544e-11 0.000392711 
266 1 1.44735e-18 3.4851e-21 4.1083e-21 -3.5 -1.5 -3 0.05 -4.3085e-16 3.25106e-12 0.000392699 
270 1 1.88626e-23 3.48494e-21 3.99799e-21 -2.5 -1.5 -3 0.05 2.28912e-19 3.25106e-12 0.000392699 
274 1 1.84529e-21 3.48513e-21 8.1453e-21 -1.5 -1.5 -3 0.05 3.2495e-12 3.25088e-12 0.000392699 
278 1 8.43096e-18 9.03468e-21 -1.73419e-17 -0.5 -1.5 -3 0.05 -2.16475e-11 3.25232e-12 0.000392699 
281 1 8.46042e-14 -1.45088e-18 6.13155e-18 -5 -1 -3 0.05 1.93487e-11 -9.54004e-13 0.000392746 
285 1 1.44634e-18 -3.49714e-18 6.12916e-18 -4 -1 -3 0.05 4.19673e-15 1.34569e-12 0.000392699 
289 1 -1.73786e-22 -3.49274e-18 6.12612e-18 -3 -1 -3 0.05 3.48536e-19 1.34528e-12 0.000392699 
293 1 -7.95443e-22 -3.49274e-18 6.12677e-18 -2 -1 -3 0.05 5.03055e-16 1.34507e-12 0.000392699 
297 1 -3.48719e-18 -3.48749e-18 1.22542e-17 -1 -1 -3 0.05 3.6465e-12 8.25048e-12 0.000392699 
282 1 -4.62867e-14 4.4815e-17 -3.47069e-17 -4.5 -0.5 -3 0.05 -2.29681e-12 -1.47447e-11 0.000392711 
286 1 1.45057e-18 4.3331e-18 -1.73447e-17 -3.5 -0.5 -3 0.05 -1.31365e-16 -2.16505e-11 0.000392699 
290 1 -1.06486e-21 4.33505e-18 -1.73458e-17 -2.5 -0.5 -3 0.05 5.03381e-16 -2.16498e-11 0.000392699 
294 1 8.35634e-21 4.33982e-18 -1.73394e-17 -1.5 -0.5 -3 0.05 3.25104e-12 -2.16497e-11 0.000392699 
298 1 -6.8788e-18 -1.09746e-17 -3.46851e-17 -0.5 -0.5 -3 0.05 -2.39541e-11 -2.85579e-11 0.000392699 
203 1 -4.62729e-14 8.4602e-14 -3.00703e-21 -4.5 -5 -2.5 0.05 -6.90277e-12 2.39525e-11 0.000392758 
204 1 8.4602e-14 -4.62729e-14 1.77026e-20 -5 -4.5 -2.5 0.05 1.70476e-11 -4.60056e-12 0.000392758 
208 1 1.44226e-18 -4.62809e-14 -1.07563e-20 -4 -4.5 -2.5 0.05 6.90875e-12 -2.29862e-12 0.000392711 
207 1 1.44533e-18 8.46041e-14 7.59731e-21 -3.5 -5 -2.5 0.05 -1.43728e-16 1.70504e-11 0.000392746 
212 1 -1.7287e-22 -4.62809e-14 -6.58286e-21 -3 -4.5 -2.5 0.05 6.90435e-12 -2.29815e-12 0.000392711 
211 1 -1.09473e-22 8.46041e-14 3.42734e-21 -2.5 -5 -2.5 0.05 2.15723e-16 1.70507e-11 0.000392746 
216 1 -1.98536e-22 -4.62809e-14 -5.65893e-21 -2 -4.5 -2.5 0.05 6.90471e-12 -2.29815e-12 0.000392711 
215 1 4.83007e-21 8.46041e-14 3.87306e-21 -1.5 -5 -2.5 0.05 3.2522e-12 1.70507e-11 0.000392746 
220 1 -3.49403e-18 -4.62809e-14 6.10719e-18 -1 -4.5 -2.5 0.05 8.25061e-12 -2.29889e-12 0.000392711 
219 1 -1.09198e-18 8.45943e-14 -3.4699e-17 -0.5 -5 -2.5 0.05 -1.24507e-11 1.24525e-11 0.000392746 
223 1 -4.62809e-14 1.4391e-18 2.32536e-21 -4.5 -4 -2.5 0.05 -2.29744e-12 2.30341e-12 0.000392711 
227 1 1.44735e-18 1.44285e-18 2.86372e-21 -3.5 -4 -2.5 0.05 1.79258e-16 -4.59921e-12 0.000392699 
231 1 1.84335e-23 1.44285e-18 2.75251e-21 -2.5 -4 -2.5 0.05 6.10348e-16 -4.59922e-12 0.000392699 
235 1 1.66309e-21 1.44225e-18 5.3662e-21 -1.5 -4 -2.5 0.05 3.25133e-12 -4.59911e-12 0.000392699 
239 1 8.42977e-18 1.44234e-18 -1.7348e-17 -0.5 -4 -2.5 0.05 -2.16487e-11 3.62405e-15 0.000392699 
224 1 8.46041e-14 1.44699e-18 2.01332e-22 -5 -3.5 -2.5 0.05 1.24488e-11 2.03371e-16 0.000392746 
228 1 1.44442e-18 1.44733e-18 3.85329e-21 -4 -3.5 -2.5 0.05 4.26803e-15 -2.41755e-17 0.000392699 
232 1 -1.7312e-22 1.44733e-18 1.62301e-21 -3 -3.5 -2.5 0.05 -2.15488e-16 1.91444e-16 0.000392699 
236 1 -7.94833e-22 1.44733e-18 2.27545e-21 -2 -3.5 -2.5 0.05 2.87209e-16 -2.36077e-17 0.000392699 
240 1 -3.4903e-18 1.44695e-18 6.12654e-18 -1 -3.5 -2.5 0.05 3.64509e-12 6.90412e-12 0.000392699 
243 1 -4.62809e-14 8.37827e-24 -4.05684e-21 -4.5 -3 -2.5 0.05 -2.29753e-12 6.90277e-12 0.000392711 
247 1 1.44735e-18 7.99399e-24 -4.53442e-22 -3.5 -3 -2.5 0.05 -4.30906e-16 -1.43306e-16 0.000392699 
251 1 1.86183e-23 7.99396e-24 -5.63983e-22 -2.5 -3 -2.5 0.05 1.72661e-19 -1.44017e-16 0.000392699 
255 1 1.84547e-21 8.13798e-24 3.58362e-21 -1.5 -3 -2.5 0.05 3.2495e-12 -3.22523e-16 0.000392699 
259 1 8.4264e-18 -1.7394e-22 -1.73457e-17 -0.5 -3 -2.5 0.05 -2.16475e-11 3.94369e-16 0.000392699 
244 1 8.46041e-14 -1.09487e-22 1.89357e-21 -5 -2.5 -2.5 0.05 1.24484e-11 2.15595e-16 0.000392746 
248 1 1.44442e-18 -1.09606e-22 2.20982e-21 -4 -2.5 -2.5 0.05 4.48381e-15 -2.15434e-16 0.000392699 
252 1 -1.7312e-22 -1.09606e-22 -2.15427e-23 -3 -2.5 -2.5 0.05 2.79353e-19 6.97426e-20 0.000392699 
256 1 -7.94756e-22 -1.09606e-22 6.3113e-22 -2 -2.5 -2.5 0.05 5.02959e-16 -2.14801e-16 0.000392699 
260 1 -3.49081e-18 -1.09242e-22 6.12417e-18 -1 -2.5 -2.5 0.05 3.6457e-12 6.90456e-12 0.000392699 
263 1 -4.62809e-14 -6.66409e-22 -2.59043e-21 -4.5 -2 -2.5 0.05 -2.29753e-12 6.90327e-12 0.000392711 
267 1 1.44735e-18 -7.94105e-22 1.0133e-21 -3.5 -2 -2.5 0.05 -4.30868e-16 3.59677e-16 0.000392699 
271 1 1.86184e-23 -7.94097e-22 9.02759e-22 -2.5 -2 -2.5 0.05 2.1077e-19 3.58966e-16 0.000392699 
275 1 1.84557e-21 -7.94097e-22 5.05041e-21 -1.5 -2 -2.5 0.05 3.2495e-12 1.80386e-16 0.000392699 
279 1 8.42658e-18 -7.40652e-22 -1.73437e-17 -0.5 -2 -2.5 0.05 -2.16475e-11 7.53359e-16 0.000392699 
264 1 8.46041e-14 4.99759e-21 2.34118e-21 -5 -1.5 -2.5 0.05 1.24484e-11 3.2522e-12 0.000392746 
268 1 1.44406e-18 4.20776e-21 5.59135e-21 -4 -1.5 -2.5 0.05 4.48378e-15 3.25085e-12 0.000392699 
272 1 -1.73097e-22 3.48534e-21 3.36001e-21 -3 -1.5 -2.5 0.05 2.72636e-19 3.25106e-12 0.000392699 
276 1 -7.94756e-22 3.48538e-21 4.01268e-21 -2 -1.5 -2.5 0.05 5.02952e-16 3.25085e-12 0.000392699 
280 1 -3.49111e-18 2.7623e-21 6.12755e-18 -1 -1.5 -2.5 0.05 3.6457e-12 1.01556e-11 0.000392699 
283 1 -4.62809e-14 -7.57787e-18 6.11112e-18 -4.5 -1 -2.5 0.05 -2.29895e-12 8.24901e-12 0.000392711 
287 1 1.4462e-18 -3.49159e-18 6.12482e-18 -3.5 -1 -2.5 0.05 -4.30963e-16 1.34528e-12 0.000392699 
291 1 1.88337e-23 -3.49274e-18 6.12471e-18 -2.5 -1 -2.5 0.05 1.41266e-19 1.34528e-12 0.000392699 
295 1 6.94903e-22 -3.49383e-18 6.12886e-18 -1.5 -1 -2.5 0.05 3.24949e-12 1.3451e-12 0.000392699 
299 1 1.41955e-17 4.33089e-18 -2.85833e-17 -0.5 -1 -2.5 0.05 -2.16441e-11 1.34551e-12 0.000392699 
284 1 8.45827e-14 -8.574e-18 -3.46982e-17 -5 -0.5 -2.5 0.05 7.8501e-12 -1.24504e-11 0.000392746 
288 1 1.30062e-17 -7.22673e-18 -1.73401e-17 -4 -0.5 -2.5 0.05 3.91172e-15 -2.1651e-11 0.000392699 
292 1 -8.95817e-22 4.33569e-18 -1.73465e-17 -3 -0.5 -2.5 0.05 2.15864e-16 -2.16499e-11 0.000392699 
296 1 -1.33712e-21 4.33515e-18 -1.73447e-17 -2 -0.5 -2.5 0.05 7.18754e-16 -2.16501e-11 0.000392699 
300 1 4.33497e-18 1.01079e-17 -2.85861e-17 -1 -0.5 -2.5 0.05 3.64582e-12 -1.47423e-11 0.000392699 
301 1 2.15522e-13 2.15522e-13 -6.28643e-21 -5 -5 -2 0.05 1.01512e-11 5.54736e-12 0.000392758 
302 1 -4.62953e-14 -4.62953e-14 -1.77492e-20 -4.5 -4.5 -2 0.05 9.20788e-12 9.8295e-16 0.000392724 
305 1 -6.74195e-18 8.46001e-14 1.06746e-20 -4 -5 -2 0.05 -4.60023e-12 1.70504e-11 0.000392746 
306 1 1.44889e-18 -4.62809e-14 -9.33599e-21 -3.5 -4.5 -2 0.05 6.90426e-12 -2.29847e-12 0.000392711 
309 1 2.0033e-22 8.46041e-14 2.03486e-21 -3 -5 -2 0.05 7.17257e-17 1.70507e-11 0.000392746 
310 1 -3.01079e-22 -4.62809e-14 -8.45437e-21 -2.5 -4.5 -2 0.05 6.90435e-12 -2.29815e-12 0.000392711 