ITEM: TIMESTEP
3
ITEM: NUMBER OF ATOMS
4000
ITEM: BOX BOUNDS ff ff ff
-5 5
-5 5
-5 5
ITEM: ATOMS id type fx fy fz x y z radius mux muy muz 
1 1 1.92096e-14 1.92096e-14 -3.83187e-14 -5 -5 -5 0.05 5.2068e-08 5.2068e-08 0.000392699 
2 1 -4.62382e-14 -4.62382e-14 -1.69082e-13 -4.5 -4.5 -5 0.05 -1.62817e-12 -1.62817e-12 0.00039263 
3 1 -4.63018e-14 8.46037e-14 9.24854e-14 -4.5 -5 -4.5 0.05 4.6007e-12 3.24964e-12 0.000392734 
4 1 8.46037e-14 -4.63018e-14 9.24854e-14 -5 -4.5 -4.5 0.05 3.24964e-12 4.6007e-12 0.000392734 
5 1 1.4419e-18 -1.11642e-13 -1.0375e-13 -4 -5 -5 0.05 1.62635e-12 5.20602e-08 0.000392669 
8 1 1.45484e-18 -4.63098e-14 9.24418e-14 -4 -4.5 -4.5 0.05 -1.06507e-15 4.59841e-12 0.000392687 
6 1 1.44416e-18 -4.62237e-14 -1.69103e-13 -3.5 -4.5 -5 0.05 3.8049e-16 -1.62926e-12 0.000392617 
7 1 1.44588e-18 8.46058e-14 9.25027e-14 -3.5 -5 -4.5 0.05 2.15339e-16 3.24935e-12 0.000392722 
9 1 -1.08678e-22 -1.11638e-13 -1.03754e-13 -3 -5 -5 0.05 1.52914e-16 5.20602e-08 0.000392669 
12 1 -1.73393e-22 -4.63098e-14 9.24418e-14 -3 -4.5 -4.5 0.05 3.36656e-20 4.59841e-12 0.000392687 
10 1 -4.50899e-23 -4.62237e-14 -1.69103e-13 -2.5 -4.5 -5 0.05 -1.09964e-19 -1.62926e-12 0.000392617 
11 1 -4.52458e-23 8.46058e-14 9.25027e-14 -2.5 -5 -4.5 0.05 1.53677e-20 3.24935e-12 0.000392722 
13 1 5.61371e-27 -1.11638e-13 -1.03754e-13 -2 -5 -5 0.05 4.52397e-19 5.20602e-08 0.000392669 
16 1 9.41312e-27 -4.63098e-14 9.24418e-14 -2 -4.5 -4.5 0.05 -2.2412e-19 4.59841e-12 0.000392687 
14 1 2.26257e-27 -4.62237e-14 -1.69103e-13 -1.5 -4.5 -5 0.05 -5.87775e-20 -1.62926e-12 0.000392617 
15 1 1.70248e-27 8.46058e-14 9.25027e-14 -1.5 -5 -4.5 0.05 -1.62765e-20 3.24935e-12 0.000392722 
17 1 4.8061e-26 -1.11638e-13 -1.03754e-13 -1 -5 -5 0.05 4.28315e-19 5.20602e-08 0.000392669 
20 1 4.79229e-25 -4.63098e-14 9.24418e-14 -1 -4.5 -4.5 0.05 1.40685e-18 4.59841e-12 0.000392687 
18 1 -4.44487e-24 -4.62237e-14 -1.69103e-13 -0.5 -4.5 -5 0.05 -2.39586e-18 -1.62926e-12 0.000392617 
19 1 1.05817e-24 8.46058e-14 9.25027e-14 -0.5 -5 -4.5 0.05 -2.26952e-19 3.24935e-12 0.000392722 
21 1 -1.11642e-13 1.4419e-18 -1.0375e-13 -5 -4 -5 0.05 5.20602e-08 1.62635e-12 0.000392669 
23 1 -4.63098e-14 1.45484e-18 9.24418e-14 -4.5 -4 -4.5 0.05 4.59841e-12 -1.06656e-15 0.000392687 
25 1 9.61416e-18 9.61416e-18 -1.69115e-13 -4 -4 -5 0.05 1.62598e-12 1.62598e-12 0.000392605 
27 1 1.44681e-18 1.45779e-18 9.24592e-14 -3.5 -4 -4.5 0.05 2.14836e-16 -1.0654e-15 0.000392675 
29 1 -4.91629e-22 9.61263e-18 -1.69119e-13 -3 -4 -5 0.05 1.52623e-16 1.62598e-12 0.000392605 
31 1 -4.52956e-23 1.45779e-18 9.24592e-14 -2.5 -4 -4.5 0.05 -3.25657e-19 -1.06594e-15 0.000392675 
33 1 2.11894e-26 9.61263e-18 -1.69119e-13 -2 -4 -5 0.05 -1.30428e-22 1.62598e-12 0.000392605 
35 1 1.98048e-27 1.45779e-18 9.24592e-14 -1.5 -4 -4.5 0.05 -2.96594e-19 -1.06594e-15 0.000392675 
37 1 -7.99309e-25 9.61263e-18 -1.69119e-13 -1 -4 -5 0.05 -7.05944e-19 1.62598e-12 0.000392605 
39 1 7.3688e-24 1.45779e-18 9.24592e-14 -0.5 -4 -4.5 0.05 -3.82815e-18 -1.06694e-15 0.000392675 
22 1 -4.62237e-14 1.44416e-18 -1.69103e-13 -4.5 -3.5 -5 0.05 -1.62926e-12 3.8104e-16 0.000392617 
24 1 8.46058e-14 1.44588e-18 9.25027e-14 -5 -3.5 -4.5 0.05 3.24935e-12 2.15457e-16 0.000392722 
28 1 1.45779e-18 1.44681e-18 9.24592e-14 -4 -3.5 -4.5 0.05 -1.06513e-15 2.15076e-16 0.000392675 
26 1 1.44294e-18 1.44294e-18 -1.69123e-13 -3.5 -3.5 -5 0.05 3.80622e-16 3.80345e-16 0.000392605 
32 1 -1.73715e-22 1.44681e-18 9.24592e-14 -3 -3.5 -4.5 0.05 -2.58332e-19 2.15191e-16 0.000392675 
30 1 -4.50166e-23 1.44294e-18 -1.69123e-13 -2.5 -3.5 -5 0.05 8.85981e-20 3.80522e-16 0.000392605 
36 1 9.34201e-27 1.44681e-18 9.24592e-14 -2 -3.5 -4.5 0.05 -4.42892e-19 2.15037e-16 0.000392675 
34 1 1.69545e-27 1.44294e-18 -1.69123e-13 -1.5 -3.5 -5 0.05 2.1561e-19 3.8078e-16 0.000392605 
40 1 4.81163e-25 1.44681e-18 9.24592e-14 -1 -3.5 -4.5 0.05 -3.90921e-19 2.16564e-16 0.000392675 
38 1 -1.03826e-23 1.44294e-18 -1.69123e-13 -0.5 -3.5 -5 0.05 -3.07208e-18 3.80251e-16 0.000392605 
41 1 -1.11638e-13 -1.08677e-22 -1.03754e-13 -5 -3 -5 0.05 5.20602e-08 1.524e-16 0.000392669 
43 1 -4.63098e-14 -1.73394e-22 9.24418e-14 -4.5 -3 -4.5 0.05 4.59841e-12 -8.94211e-19 0.000392687 
45 1 9.61263e-18 -4.91629e-22 -1.69119e-13 -4 -3 -5 0.05 1.62598e-12 1.52536e-16 0.000392605 
47 1 1.44681e-18 -1.73714e-22 9.24592e-14 -3.5 -3 -4.5 0.05 2.14795e-16 1.18761e-19 0.000392675 
49 1 -4.91465e-22 -4.91465e-22 -1.69123e-13 -3 -3 -5 0.05 1.52484e-16 1.52183e-16 0.000392605 
51 1 -4.52956e-23 -1.73714e-22 9.24592e-14 -2.5 -3 -4.5 0.05 -3.66785e-19 -4.3674e-19 0.000392675 
53 1 2.13162e-26 -4.91465e-22 -1.69123e-13 -2 -3 -5 0.05 -1.65995e-19 1.52576e-16 0.000392605 
55 1 2.12399e-27 -1.73715e-22 9.24592e-14 -1.5 -3 -4.5 0.05 -6.58311e-19 -6.2851e-19 0.000392675 
57 1 -8.72195e-25 -4.91464e-22 -1.69123e-13 -1 -3 -5 0.05 -4.37814e-19 1.52219e-16 0.000392605 
59 1 7.44578e-24 -1.7424e-22 9.24592e-14 -0.5 -3 -4.5 0.05 -3.51299e-18 -6.63339e-19 0.000392675 
42 1 -4.62237e-14 -4.50906e-23 -1.69103e-13 -4.5 -2.5 -5 0.05 -1.62926e-12 5.25578e-19 0.000392617 
44 1 8.46058e-14 -4.5245e-23 9.25027e-14 -5 -2.5 -4.5 0.05 3.24935e-12 -1.31437e-20 0.000392722 
48 1 1.45779e-18 -4.52958e-23 9.24592e-14 -4 -2.5 -4.5 0.05 -1.06519e-15 -5.08939e-19 0.000392675 
46 1 1.44294e-18 -4.50164e-23 -1.69123e-13 -3.5 -2.5 -5 0.05 3.80532e-16 -1.65608e-19 0.000392605 
52 1 -1.73715e-22 -4.52953e-23 9.24592e-14 -3 -2.5 -4.5 0.05 -3.12234e-19 -3.94303e-19 0.000392675 
50 1 -4.50168e-23 -4.50169e-23 -1.69123e-13 -2.5 -2.5 -5 0.05 -1.13524e-21 1.14673e-20 0.000392605 
56 1 9.26472e-27 -4.52955e-23 9.24592e-14 -2 -2.5 -4.5 0.05 -4.96807e-19 -5.47858e-19 0.000392675 
54 1 1.83912e-27 -4.50177e-23 -1.69123e-13 -1.5 -2.5 -5 0.05 1.25895e-19 2.43574e-19 0.000392605 
60 1 4.81248e-25 -4.52947e-23 9.24592e-14 -1 -2.5 -4.5 0.05 -3.73008e-19 1.12439e-18 0.000392675 
58 1 -1.06017e-23 -4.50396e-23 -1.69123e-13 -0.5 -2.5 -5 0.05 -3.09893e-18 -2.0487e-19 0.000392605 
61 1 -1.11638e-13 5.63245e-27 -1.03754e-13 -5 -2 -5 0.05 5.20602e-08 -1.31857e-19 0.000392669 
63 1 -4.63098e-14 9.3947e-27 9.24418e-14 -4.5 -2 -4.5 0.05 4.59841e-12 -7.61983e-19 0.000392687 
65 1 9.61263e-18 2.1251e-26 -1.69119e-13 -4 -2 -5 0.05 1.62598e-12 3.27276e-20 0.000392605 
67 1 1.44681e-18 1.02711e-26 9.24592e-14 -3.5 -2 -4.5 0.05 2.14765e-16 -4.31971e-21 0.000392675 
69 1 -4.91465e-22 2.10556e-26 -1.69123e-13 -3 -2 -5 0.05 1.52506e-16 -3.93623e-19 0.000392605 
71 1 -4.52955e-23 9.88511e-27 9.24592e-14 -2.5 -2 -4.5 0.05 -3.96288e-19 -5.59835e-19 0.000392675 
73 1 2.12606e-26 2.14338e-26 -1.69123e-13 -2 -2 -5 0.05 -1.43345e-19 -4.88352e-22 0.000392605 
75 1 2.34418e-27 9.26403e-27 9.24592e-14 -1.5 -2 -4.5 0.05 -6.87858e-19 -7.51723e-19 0.000392675 
77 1 -8.75378e-25 2.29942e-26 -1.69123e-13 -1 -2 -5 0.05 -4.28677e-19 -3.75843e-19 0.000392605 
79 1 7.4589e-24 -6.54159e-25 9.24592e-14 -0.5 -2 -4.5 0.05 -3.53799e-18 -8.96443e-19 0.000392675 
62 1 -4.62237e-14 1.64152e-27 -1.69103e-13 -4.5 -1.5 -5 0.05 -1.62926e-12 9.38829e-20 0.000392617 
64 1 8.46058e-14 1.47142e-27 9.25027e-14 -5 -1.5 -4.5 0.05 3.24935e-12 1.18777e-19 0.000392722 
68 1 1.45779e-18 1.45673e-27 9.24592e-14 -4 -1.5 -4.5 0.05 -1.06557e-15 2.6327e-19 0.000392675 
66 1 1.44294e-18 1.50041e-27 -1.69123e-13 -3.5 -1.5 -5 0.05 3.80596e-16 1.15965e-19 0.000392605 
72 1 -1.73715e-22 1.90964e-27 9.24592e-14 -3 -1.5 -4.5 0.05 -3.92062e-19 5.00857e-21 0.000392675 
70 1 -4.50168e-23 1.27335e-27 -1.69123e-13 -2.5 -1.5 -5 0.05 1.20193e-19 1.08977e-19 0.000392605 
76 1 9.19074e-27 1.69799e-27 9.24592e-14 -2 -1.5 -4.5 0.05 -5.76636e-19 -1.48606e-19 0.000392675 
74 1 1.39968e-27 8.05498e-28 -1.69123e-13 -1.5 -1.5 -5 0.05 2.28142e-19 2.46797e-19 0.000392605 
80 1 4.76702e-25 2.72098e-27 9.24592e-14 -1 -1.5 -4.5 0.05 -4.36524e-19 1.63859e-18 0.000392675 
78 1 -1.08762e-23 7.03517e-26 -1.69123e-13 -0.5 -1.5 -5 0.05 -2.95301e-18 1.475e-19 0.000392605 
81 1 -1.11638e-13 7.1823e-26 -1.03754e-13 -5 -1 -5 0.05 5.20602e-08 2.02008e-19 0.000392669 
83 1 -4.63098e-14 8.57605e-25 9.24418e-14 -4.5 -1 -4.5 0.05 4.59841e-12 3.51565e-19 0.000392687 
85 1 9.61263e-18 -6.1447e-25 -1.69119e-13 -4 -1 -5 0.05 1.62598e-12 -6.50957e-19 0.000392605 
87 1 1.44681e-18 3.13677e-25 9.24592e-14 -3.5 -1 -4.5 0.05 2.15608e-16 1.02276e-19 0.000392675 
89 1 -4.91465e-22 -7.39777e-25 -1.69123e-13 -3 -1 -5 0.05 1.52075e-16 5.38749e-19 0.000392605 
91 1 -4.52955e-23 4.25655e-25 9.24592e-14 -2.5 -1 -4.5 0.05 2.28657e-19 -2.02108e-19 0.000392675 
93 1 2.18911e-26 -7.65881e-25 -1.69123e-13 -2 -1 -5 0.05 -5.07203e-19 6.43481e-19 0.000392605 
95 1 1.6855e-27 4.77728e-25 9.24592e-14 -1.5 -1 -4.5 0.05 2.4868e-19 -3.1952e-20 0.000392675 
97 1 -9.71868e-25 -8.90659e-25 -1.69123e-13 -1 -1 -5 0.05 -4.00785e-19 2.13762e-19 0.000392605 
99 1 4.63906e-24 -2.43204e-24 9.24592e-14 -0.5 -1 -4.5 0.05 -4.6227e-18 -2.93083e-18 0.000392675 
82 1 -4.62237e-14 -8.99406e-24 -1.69103e-13 -4.5 -0.5 -5 0.05 -1.62926e-12 -2.37116e-18 0.000392617 
84 1 8.46058e-14 1.40497e-24 9.25027e-14 -5 -0.5 -4.5 0.05 3.24935e-12 -4.52019e-19 0.000392722 
88 1 1.45779e-18 5.99343e-24 9.24592e-14 -4 -0.5 -4.5 0.05 -1.06599e-15 -4.28972e-18 0.000392675 
86 1 1.44294e-18 -9.58789e-24 -1.69123e-13 -3.5 -0.5 -5 0.05 3.80421e-16 -2.21933e-18 0.000392605 
92 1 -1.73662e-22 5.23736e-24 9.24592e-14 -3 -0.5 -4.5 0.05 -4.37607e-19 -4.28011e-18 0.000392675 
90 1 -4.51704e-23 -1.05068e-23 -1.69123e-13 -2.5 -0.5 -5 0.05 -8.88412e-20 -2.24989e-18 0.000392605 
96 1 -2.29848e-25 5.90582e-24 9.24592e-14 -2 -0.5 -4.5 0.05 -4.23984e-19 -4.42068e-18 0.000392675 
94 1 -8.05025e-26 -1.12278e-23 -1.69123e-13 -1.5 -0.5 -5 0.05 -4.50701e-19 -2.40588e-18 0.000392605 
100 1 -2.96207e-24 3.55288e-24 9.24592e-14 -1 -0.5 -4.5 0.05 -2.58192e-18 -4.20086e-18 0.000392675 
98 1 -1.44461e-23 -1.20891e-23 -1.69123e-13 -0.5 -0.5 -5 0.05 -2.5413e-18 -2.31432e-18 0.000392605 
101 1 2.15516e-13 2.15516e-13 5.78991e-18 -5 -5 -4 0.05 1.62674e-12 1.62675e-12 0.000392758 
102 1 -4.62953e-14 -4.62953e-14 5.77844e-18 -4.5 -4.5 -4 0.05 -7.88001e-16 -7.87622e-16 0.000392724 
105 1 -6.73805e-18 8.45939e-14 5.78089e-18 -4 -5 -4 0.05 1.06835e-15 1.62634e-12 0.000392746 
106 1 1.44767e-18 -4.62809e-14 5.77482e-18 -3.5 -4.5 -4 0.05 -1.69155e-19 -7.87705e-16 0.000392711 
109 1 2.10219e-22 8.4598e-14 5.78172e-18 -3 -5 -4 0.05 2.89866e-19 1.62634e-12 0.000392746 
110 1 -4.52708e-23 -4.62809e-14 5.77482e-18 -2.5 -4.5 -4 0.05 9.75937e-20 -7.87871e-16 0.000392711 
113 1 -6.00924e-27 8.4598e-14 5.78172e-18 -2 -5 -4 0.05 2.15676e-19 1.62634e-12 0.000392746 
114 1 1.10139e-27 -4.62809e-14 5.77482e-18 -1.5 -4.5 -4 0.05 -2.90468e-19 -7.88101e-16 0.000392711 
117 1 2.28311e-25 8.4598e-14 5.78172e-18 -1 -5 -4 0.05 6.66174e-19 1.62634e-12 0.000392746 
118 1 -2.17622e-24 -4.62809e-14 5.77482e-18 -0.5 -4.5 -4 0.05 -5.10687e-19 -7.89017e-16 0.000392711 
121 1 8.45939e-14 -6.73805e-18 5.78089e-18 -5 -4 -4 0.05 1.62634e-12 1.0677e-15 0.000392746 
125 1 1.44383e-18 1.44383e-18 5.76953e-18 -4 -4 -4 0.05 1.06793e-15 1.06752e-15 0.000392699 
129 1 -1.73278e-22 1.4423e-18 5.77036e-18 -3 -4 -4 0.05 1.73504e-19 1.06763e-15 0.000392699 
133 1 9.58663e-27 1.4423e-18 5.77036e-18 -2 -4 -4 0.05 -8.52832e-20 1.06772e-15 0.000392699 
137 1 -1.00097e-26 1.4423e-18 5.77036e-18 -1 -4 -4 0.05 4.37789e-20 1.06841e-15 0.000392699 
122 1 -4.62809e-14 1.44767e-18 5.77482e-18 -4.5 -3.5 -4 0.05 -7.87878e-16 -6.37744e-19 0.000392711 
126 1 1.44645e-18 1.44645e-18 5.77119e-18 -3.5 -3.5 -4 0.05 -3.81893e-19 -3.0473e-20 0.000392699 
130 1 -4.51971e-23 1.44645e-18 5.77119e-18 -2.5 -3.5 -4 0.05 1.08221e-19 -2.74445e-19 0.000392699 
134 1 1.595e-27 1.44645e-18 5.77119e-18 -1.5 -3.5 -4 0.05 -2.50769e-19 -4.27123e-19 0.000392699 
138 1 -2.66732e-24 1.44645e-18 5.77119e-18 -0.5 -3.5 -4 0.05 -1.87762e-18 -1.66585e-20 0.000392699 
141 1 8.4598e-14 2.10219e-22 5.78172e-18 -5 -3 -4 0.05 1.62634e-12 3.24693e-19 0.000392746 
145 1 1.4423e-18 -1.73278e-22 5.77036e-18 -4 -3 -4 0.05 1.06802e-15 -1.93557e-19 0.000392699 
149 1 -1.73114e-22 -1.73115e-22 5.77119e-18 -3 -3 -4 0.05 1.19741e-19 4.52386e-20 0.000392699 
153 1 9.48374e-27 -1.73115e-22 5.77119e-18 -2 -3 -4 0.05 -1.39083e-19 8.4694e-20 0.000392699 
157 1 6.65967e-27 -1.73116e-22 5.77119e-18 -1 -3 -4 0.05 5.21041e-20 7.06516e-19 0.000392699 
142 1 -4.62809e-14 -4.52705e-23 5.77482e-18 -4.5 -2.5 -4 0.05 -7.88015e-16 -3.0031e-19 0.000392711 
146 1 1.44645e-18 -4.51975e-23 5.77119e-18 -3.5 -2.5 -4 0.05 -4.40347e-19 2.81503e-19 0.000392699 
150 1 -4.51972e-23 -4.51974e-23 5.77119e-18 -2.5 -2.5 -4 0.05 4.98268e-20 3.75112e-20 0.000392699 
154 1 1.5015e-27 -4.51971e-23 5.77119e-18 -1.5 -2.5 -4 0.05 -3.0922e-19 -7.69413e-20 0.000392699 
158 1 -2.57953e-24 -4.50143e-23 5.77118e-18 -0.5 -2.5 -4 0.05 -1.8913e-18 1.77133e-19 0.000392699 
161 1 8.4598e-14 -6.48809e-27 5.78172e-18 -5 -2 -4 0.05 1.62634e-12 -1.87554e-21 0.000392746 
165 1 1.4423e-18 9.10165e-27 5.77036e-18 -4 -2 -4 0.05 1.0682e-15 -8.01854e-19 0.000392699 
169 1 -1.73115e-22 9.39286e-27 5.77119e-18 -3 -2 -4 0.05 1.40699e-19 -4.30774e-19 0.000392699 
173 1 9.35005e-27 9.58763e-27 5.77119e-18 -2 -2 -4 0.05 -1.18112e-19 -3.91379e-19 0.000392699 
177 1 -5.42753e-27 8.22673e-27 5.77119e-18 -1 -2 -4 0.05 6.1705e-20 1.84214e-19 0.000392699 
162 1 -4.62809e-14 2.37932e-27 5.77482e-18 -4.5 -1.5 -4 0.05 -7.88216e-16 -9.97547e-20 0.000392711 
166 1 1.44645e-18 1.56079e-27 5.77119e-18 -3.5 -1.5 -4 0.05 -3.66063e-19 5.40446e-19 0.000392699 
170 1 -4.51967e-23 1.62203e-27 5.77119e-18 -2.5 -1.5 -4 0.05 8.93599e-20 2.78363e-19 0.000392699 
174 1 2.11998e-27 2.2632e-27 5.77119e-18 -1.5 -1.5 -4 0.05 -3.23969e-19 4.05426e-20 0.000392699 
178 1 -1.83873e-24 1.56869e-24 5.77119e-18 -0.5 -1.5 -4 0.05 -1.85704e-18 1.20992e-18 0.000392699 
181 1 8.4598e-14 2.26589e-25 5.78172e-18 -5 -1 -4 0.05 1.62634e-12 7.18846e-19 0.000392746 
185 1 1.4423e-18 -6.31676e-26 5.77036e-18 -4 -1 -4 0.05 1.06876e-15 2.0587e-19 0.000392699 
189 1 -1.73115e-22 -7.02331e-26 5.77119e-18 -3 -1 -4 0.05 -9.70513e-20 1.14129e-18 0.000392699 
193 1 8.51169e-27 -1.04688e-25 5.77119e-18 -2 -1 -4 0.05 -3.9202e-19 1.05357e-18 0.000392699 
197 1 3.53379e-25 3.64171e-25 5.77119e-18 -1 -1 -4 0.05 1.39502e-18 3.51239e-18 0.000392699 
182 1 -4.62809e-14 -3.11882e-24 5.77481e-18 -4.5 -0.5 -4 0.05 -7.89545e-16 -1.4107e-18 0.000392711 
186 1 1.44645e-18 -9.13054e-25 5.77118e-18 -3.5 -0.5 -4 0.05 -3.71458e-19 -2.8059e-18 0.000392699 
190 1 -4.50825e-23 -1.98462e-24 5.77118e-18 -2.5 -0.5 -4 0.05 -1.7398e-19 -2.77803e-18 0.000392699 
194 1 2.28131e-24 -1.35711e-24 5.77118e-18 -1.5 -0.5 -4 0.05 8.86372e-19 -2.69359e-18 0.000392699 
198 1 -8.53845e-25 4.81067e-25 5.77117e-18 -0.5 -0.5 -4 0.05 -6.49929e-18 -7.05669e-18 0.000392699 
103 1 -4.62729e-14 8.4602e-14 5.77927e-18 -4.5 -5 -3.5 0.05 2.15743e-16 9.63551e-16 0.000392758 
104 1 8.4602e-14 -4.62729e-14 5.77927e-18 -5 -4.5 -3.5 0.05 9.6338e-16 2.15536e-16 0.000392758 
108 1 1.44427e-18 -4.62809e-14 5.7756e-18 -4 -4.5 -3.5 0.05 7.81603e-19 2.14507e-16 0.000392711 
107 1 1.44552e-18 8.46041e-14 5.78098e-18 -3.5 -5 -3.5 0.05 1.95315e-19 9.64142e-16 0.000392746 
112 1 -1.7279e-22 -4.62809e-14 5.7756e-18 -3 -4.5 -3.5 0.05 1.93535e-19 2.14969e-16 0.000392711 
111 1 -4.5147e-23 8.46041e-14 5.78098e-18 -2.5 -5 -3.5 0.05 3.04056e-19 9.64152e-16 0.000392746 
116 1 9.02527e-27 -4.62809e-14 5.7756e-18 -2 -4.5 -3.5 0.05 -1.63277e-19 2.1495e-16 0.000392711 
115 1 1.6595e-27 8.46041e-14 5.78098e-18 -1.5 -5 -3.5 0.05 3.50058e-19 9.63975e-16 0.000392746 
120 1 3.02583e-26 -4.62809e-14 5.7756e-18 -1 -4.5 -3.5 0.05 1.08699e-18 2.14801e-16 0.000392711 
119 1 -2.36118e-24 8.46041e-14 5.78098e-18 -0.5 -5 -3.5 0.05 -7.09524e-19 9.64342e-16 0.000392746 
123 1 -4.62809e-14 1.44427e-18 5.7756e-18 -4.5 -4 -3.5 0.05 2.14852e-16 1.44461e-19 0.000392711 
127 1 1.44645e-18 1.44722e-18 5.77732e-18 -3.5 -4 -3.5 0.05 3.49121e-20 5.77053e-19 0.000392699 
131 1 -4.51969e-23 1.44722e-18 5.77732e-18 -2.5 -4 -3.5 0.05 9.90075e-20 3.50991e-19 0.000392699 
135 1 1.54326e-27 1.44722e-18 5.77732e-18 -1.5 -4 -3.5 0.05 3.30401e-20 4.19362e-19 0.000392699 
139 1 -8.94961e-25 1.44722e-18 5.77732e-18 -0.5 -4 -3.5 0.05 -2.7591e-18 1.8518e-19 0.000392699 
124 1 8.46041e-14 1.44552e-18 5.78098e-18 -5 -3.5 -3.5 0.05 9.64075e-16 2.6945e-19 0.000392746 
128 1 1.44722e-18 1.44645e-18 5.77732e-18 -4 -3.5 -3.5 0.05 7.57769e-19 -1.15546e-19 0.000392699 
132 1 -1.73112e-22 1.44645e-18 5.77731e-18 -3 -3.5 -3.5 0.05 1.02139e-19 1.23428e-19 0.000392699 
136 1 9.24249e-27 1.44645e-18 5.77731e-18 -2 -3.5 -3.5 0.05 -6.98643e-20 1.44956e-19 0.000392699 
140 1 7.07501e-26 1.44645e-18 5.77732e-18 -1 -3.5 -3.5 0.05 1.03875e-19 7.13949e-19 0.000392699 
143 1 -4.62809e-14 -1.7279e-22 5.7756e-18 -4.5 -3 -3.5 0.05 2.1481e-16 -2.35668e-19 0.000392711 
147 1 1.44645e-18 -1.73112e-22 5.77731e-18 -3.5 -3 -3.5 0.05 -1.88973e-20 2.36755e-19 0.000392699 
151 1 -4.5197e-23 -1.73112e-22 5.77732e-18 -2.5 -3 -3.5 0.05 4.5214e-20 -2.74374e-21 0.000392699 
155 1 1.76327e-27 -1.73112e-22 5.77732e-18 -1.5 -3 -3.5 0.05 -2.77768e-19 -1.10056e-19 0.000392699 
159 1 -7.30925e-25 -1.73182e-22 5.77731e-18 -0.5 -3 -3.5 0.05 -2.58446e-18 4.62412e-19 0.000392699 
144 1 8.46041e-14 -4.5147e-23 5.78098e-18 -5 -2.5 -3.5 0.05 9.64031e-16 2.31072e-19 0.000392746 
148 1 1.44722e-18 -4.51971e-23 5.77732e-18 -4 -2.5 -3.5 0.05 7.03733e-19 -2.29581e-19 0.000392699 
152 1 -1.73112e-22 -4.51972e-23 5.77732e-18 -3 -2.5 -3.5 0.05 4.82086e-20 9.32015e-21 0.000392699 
156 1 9.24793e-27 -4.51972e-23 5.77732e-18 -2 -2.5 -3.5 0.05 -1.23807e-19 3.09283e-20 0.000392699 
160 1 7.28688e-26 -4.51969e-23 5.77732e-18 -1 -2.5 -3.5 0.05 1.39702e-19 8.17672e-19 0.000392699 
163 1 -4.62809e-14 9.31884e-27 5.7756e-18 -4.5 -2 -3.5 0.05 2.14704e-16 -5.58427e-19 0.000392711 
167 1 1.44645e-18 9.30634e-27 5.77731e-18 -3.5 -2 -3.5 0.05 -1.89186e-20 -1.84049e-19 0.000392699 
171 1 -4.5197e-23 9.16084e-27 5.77732e-18 -2.5 -2 -3.5 0.05 4.52103e-20 -4.236e-19 0.000392699 
175 1 1.77332e-27 9.18464e-27 5.77732e-18 -1.5 -2 -3.5 0.05 -2.77775e-19 -5.30959e-19 0.000392699 
179 1 -4.05646e-25 1.68e-25 5.77731e-18 -0.5 -2 -3.5 0.05 -2.69e-18 -1.9601e-19 0.000392699 
164 1 8.46041e-14 1.48164e-27 5.78098e-18 -5 -1.5 -3.5 0.05 9.63927e-16 2.47827e-19 0.000392746 
168 1 1.44722e-18 2.04007e-27 5.77732e-18 -4 -1.5 -3.5 0.05 4.66755e-19 2.28089e-19 0.000392699 
172 1 -1.73112e-22 1.92577e-27 5.77732e-18 -3 -1.5 -3.5 0.05 4.22567e-20 2.84603e-19 0.000392699 
176 1 9.04969e-27 1.84494e-27 5.77732e-18 -2 -1.5 -3.5 0.05 -1.29745e-19 3.0627e-19 0.000392699 
180 1 1.55873e-25 7.53287e-28 5.77732e-18 -1 -1.5 -3.5 0.05 5.73151e-20 7.63685e-19 0.000392699 
183 1 -4.62809e-14 2.825e-25 5.7756e-18 -4.5 -1 -3.5 0.05 2.15079e-16 8.79771e-19 0.000392711 
187 1 1.44645e-18 -6.87641e-26 5.77732e-18 -3.5 -1 -3.5 0.05 1.63648e-19 1.17556e-18 0.000392699 
191 1 -4.51971e-23 4.49071e-26 5.77732e-18 -2.5 -1 -3.5 0.05 9.98994e-20 1.07062e-18 0.000392699 
195 1 5.1262e-28 1.37e-25 5.77732e-18 -1.5 -1 -3.5 0.05 -4.09784e-19 9.37379e-19 0.000392699 
199 1 -1.74515e-24 9.95741e-25 5.77731e-18 -0.5 -1 -3.5 0.05 -2.09648e-18 7.62632e-19 0.000392699 
184 1 8.46041e-14 -2.08219e-24 5.78098e-18 -5 -0.5 -3.5 0.05 9.63883e-16 -5.70172e-19 0.000392746 
188 1 1.44722e-18 2.00999e-25 5.77732e-18 -4 -0.5 -3.5 0.05 5.21922e-19 -3.65331e-18 0.000392699 
192 1 -1.73137e-22 -4.67986e-25 5.77731e-18 -3 -0.5 -3.5 0.05 3.81088e-19 -3.51948e-18 0.000392699 
196 1 -7.62852e-26 3.77376e-25 5.77731e-18 -2 -0.5 -3.5 0.05 -6.62957e-20 -3.86869e-18 0.000392699 
200 1 5.82669e-25 -1.78582e-24 5.77731e-18 -1 -0.5 -3.5 0.05 -1.06768e-19 -1.37868e-18 0.000392699 
201 1 2.15522e-13 2.15522e-13 8.72928e-22 -5 -5 -3 0.05 1.52391e-16 1.52946e-16 0.000392758 
202 1 -4.62953e-14 -4.62953e-14 1.38143e-21 -4.5 -4.5 -3 0.05 -5.45171e-19 -1.6654e-19 0.000392724 
205 1 -6.73313e-18 8.46001e-14 1.12731e-21 -4 -5 -3 0.05 9.27991e-19 1.52692e-16 0.000392746 
206 1 1.44767e-18 -4.62809e-14 1.38141e-21 -3.5 -4.5 -3 0.05 9.66367e-20 -1.6469e-19 0.000392711 
209 1 2.10221e-22 8.46041e-14 1.12747e-21 -3 -5 -3 0.05 2.2004e-19 1.5275e-16 0.000392746 
210 1 -4.52705e-23 -4.62809e-14 1.38141e-21 -2.5 -4.5 -3 0.05 9.01194e-20 -3.26501e-19 0.000392711 
213 1 -6.31488e-27 8.46041e-14 1.12747e-21 -2 -5 -3 0.05 2.23612e-19 1.52701e-16 0.000392746 
214 1 1.46169e-27 -4.62809e-14 1.38141e-21 -1.5 -4.5 -3 0.05 -1.87875e-19 -5.92347e-19 0.000392711 
217 1 3.79006e-25 8.46041e-14 1.12806e-21 -1 -5 -3 0.05 7.5857e-19 1.52919e-16 0.000392746 
218 1 1.33403e-24 -4.62809e-14 1.38262e-21 -0.5 -4.5 -3 0.05 -1.393e-18 -1.30673e-18 0.000392711 
221 1 8.46001e-14 -6.73313e-18 1.12731e-21 -5 -4 -3 0.05 1.5252e-16 2.81225e-19 0.000392746 
225 1 1.44875e-18 1.44875e-18 1.38108e-21 -4 -4 -3 0.05 8.66711e-19 4.53753e-19 0.000392699 
229 1 -1.73276e-22 1.44722e-18 1.38124e-21 -3 -4 -3 0.05 1.03692e-19 5.57964e-19 0.000392699 
233 1 9.37322e-27 1.44722e-18 1.38124e-21 -2 -4 -3 0.05 -6.84593e-20 6.31084e-19 0.000392699 
237 1 8.63506e-26 1.44722e-18 1.38208e-21 -1 -4 -3 0.05 7.92715e-20 1.47885e-18 0.000392699 
222 1 -4.62809e-14 1.44767e-18 1.38141e-21 -4.5 -3.5 -3 0.05 -3.37191e-19 -3.72027e-19 0.000392711 
226 1 1.44645e-18 1.44645e-18 1.3814e-21 -3.5 -3.5 -3 0.05 -1.16134e-19 2.35337e-19 0.000392699 
230 1 -4.51969e-23 1.44645e-18 1.3814e-21 -2.5 -3.5 -3 0.05 1.00675e-19 -4.24755e-21 0.000392699 
234 1 1.85486e-27 1.44645e-18 1.3814e-21 -1.5 -3.5 -3 0.05 -2.2231e-19 -1.3712e-19 0.000392699 
238 1 1.39954e-26 1.44645e-18 1.37823e-21 -0.5 -3.5 -3 0.05 -2.58441e-18 3.40209e-19 0.000392699 
241 1 8.46041e-14 2.10221e-22 1.12747e-21 -5 -3 -3 0.05 1.52629e-16 2.54834e-19 0.000392746 
245 1 1.44722e-18 -1.73276e-22 1.38124e-21 -4 -3 -3 0.05 9.47761e-19 -2.63536e-19 0.000392699 
249 1 -1.73113e-22 -1.73113e-22 1.3814e-21 -3 -3 -3 0.05 4.98828e-20 -2.4614e-20 0.000392699 
253 1 9.19459e-27 -1.73113e-22 1.3814e-21 -2 -3 -3 0.05 -1.22233e-19 -3.01907e-21 0.000392699 
257 1 1.03399e-25 -1.73113e-22 1.38233e-21 -1 -3 -3 0.05 8.74577e-20 7.78712e-19 0.000392699 
242 1 -4.62809e-14 -4.52708e-23 1.38141e-21 -4.5 -2.5 -3 0.05 -4.70261e-19 -3.07827e-19 0.000392711 
246 1 1.44645e-18 -4.51969e-23 1.3814e-21 -3.5 -2.5 -3 0.05 -1.70111e-19 2.74e-19 0.000392699 
250 1 -4.51971e-23 -4.51971e-23 1.3814e-21 -2.5 -2.5 -3 0.05 4.68111e-20 3.44286e-20 0.000392699 
254 1 1.55733e-27 -4.51971e-23 1.3814e-21 -1.5 -2.5 -3 0.05 -2.76237e-19 -6.02845e-20 0.000392699 
258 1 9.34002e-26 -4.50954e-23 1.37841e-21 -0.5 -2.5 -3 0.05 -2.59125e-18 2.1584e-19 0.000392699 
261 1 8.46041e-14 -6.61703e-27 1.12747e-21 -5 -2 -3 0.05 1.5246e-16 6.11281e-21 0.000392746 
265 1 1.44722e-18 9.0806e-27 1.38124e-21 -4 -2 -3 0.05 1.11499e-18 -8.1663e-19 0.000392699 
269 1 -1.73113e-22 9.29371e-27 1.3814e-21 -3 -2 -3 0.05 4.99177e-20 -4.45543e-19 0.000392699 
273 1 9.19233e-27 9.38959e-27 1.3814e-21 -2 -2 -3 0.05 -1.22251e-19 -4.23949e-19 0.000392699 
277 1 9.12609e-26 9.40588e-27 1.38233e-21 -1 -2 -3 0.05 3.1662e-20 2.67004e-19 0.000392699 
262 1 -4.62809e-14 1.99232e-27 1.38141e-21 -4.5 -1.5 -3 0.05 -7.60833e-19 4.52467e-20 0.000392711 
266 1 1.44645e-18 1.73327e-27 1.3814e-21 -3.5 -1.5 -3 0.05 -1.2859e-19 5.67466e-19 0.000392699 
270 1 -4.51971e-23 1.69301e-27 1.3814e-21 -2.5 -1.5 -3 0.05 5.35611e-20 3.09804e-19 0.000392699 
274 1 1.89654e-27 2.16201e-27 1.3814e-21 -1.5 -1.5 -3 0.05 -3.82182e-19 3.34427e-20 0.000392699 
278 1 4.08096e-25 1.09305e-24 1.37916e-21 -0.5 -1.5 -3 0.05 -2.45957e-18 1.35463e-18 0.000392699 
281 1 8.46041e-14 3.77896e-25 1.12786e-21 -5 -1 -3 0.05 1.53078e-16 7.57045e-19 0.000392746 
285 1 1.44722e-18 8.20837e-26 1.38227e-21 -4 -1 -3 0.05 1.68633e-18 2.93047e-19 0.000392699 
289 1 -1.73112e-22 7.51885e-26 1.38243e-21 -3 -1 -3 0.05 -2.66061e-20 1.04873e-18 0.000392699 
293 1 9.31583e-27 4.07412e-26 1.38243e-21 -2 -1 -3 0.05 -2.79262e-19 8.98686e-19 0.000392699 
297 1 4.29801e-25 3.9753e-25 1.38306e-21 -1 -1 -3 0.05 1.21754e-18 3.28194e-18 0.000392699 
282 1 -4.62809e-14 -8.28335e-25 1.37898e-21 -4.5 -0.5 -3 0.05 -1.81476e-18 -2.20373e-18 0.000392711 
286 1 1.44645e-18 1.28253e-24 1.37814e-21 -3.5 -0.5 -3 0.05 1.53539e-19 -3.45058e-18 0.000392699 
290 1 -4.51592e-23 2.01899e-25 1.37815e-21 -2.5 -0.5 -3 0.05 3.28981e-20 -3.41594e-18 0.000392699 
294 1 1.14389e-24 3.47469e-25 1.37827e-21 -1.5 -0.5 -3 0.05 1.28637e-18 -3.37464e-18 0.000392699 
298 1 -1.29251e-24 -2.43439e-25 1.36543e-21 -0.5 -0.5 -3 0.05 -5.67096e-18 -6.23553e-18 0.000392699 
203 1 -4.62729e-14 8.4602e-14 3.61192e-22 -4.5 -5 -2.5 0.05 2.56886e-19 -1.92716e-19 0.000392758 
204 1 8.4602e-14 -4.62729e-14 3.6119e-22 -5 -4.5 -2.5 0.05 -3.63536e-19 4.94638e-20 0.000392758 
208 1 1.44426e-18 -4.62809e-14 3.60972e-22 -4 -4.5 -2.5 0.05 9.78023e-19 -8.43077e-19 0.000392711 
207 1 1.44552e-18 8.46041e-14 3.61374e-22 -3.5 -5 -2.5 0.05 4.10078e-20 3.22762e-19 0.000392746 
212 1 -1.72791e-22 -4.62809e-14 3.60971e-22 -3 -4.5 -2.5 0.05 2.05462e-19 -3.80507e-19 0.000392711 
211 1 -4.5147e-23 8.46041e-14 3.61375e-22 -2.5 -5 -2.5 0.05 3.02386e-19 3.32429e-19 0.000392746 
216 1 8.93534e-27 -4.62809e-14 3.60971e-22 -2 -4.5 -2.5 0.05 -1.51404e-19 -4.00239e-19 0.000392711 
215 1 1.59329e-27 8.46041e-14 3.61375e-22 -1.5 -5 -2.5 0.05 3.4848e-19 1.55961e-19 0.000392746 
220 1 6.30031e-26 -4.62809e-14 3.61329e-22 -1 -4.5 -2.5 0.05 1.04492e-18 -5.54385e-19 0.000392711 
219 1 -2.61838e-24 8.46041e-14 3.5644e-22 -0.5 -5 -2.5 0.05 -6.00516e-19 3.71725e-19 0.000392746 
223 1 -4.62809e-14 1.44426e-18 3.60971e-22 -4.5 -4 -2.5 0.05 -4.98164e-19 3.40808e-19 0.000392711 
227 1 1.44645e-18 1.44722e-18 3.61154e-22 -3.5 -4 -2.5 0.05 -1.05912e-19 7.73417e-19 0.000392699 
231 1 -4.51971e-23 1.44722e-18 3.61154e-22 -2.5 -4 -2.5 0.05 1.10896e-19 5.4737e-19 0.000392699 
235 1 1.47133e-27 1.44722e-18 3.61154e-22 -1.5 -4 -2.5 0.05 4.48878e-20 6.28352e-19 0.000392699 
239 1 -2.42101e-25 1.44722e-18 3.58913e-22 -0.5 -4 -2.5 0.05 -2.68156e-18 3.00031e-19 0.000392699 
224 1 8.46041e-14 1.44552e-18 3.61375e-22 -5 -3.5 -2.5 0.05 2.55702e-19 1.15055e-19 0.000392746 
228 1 1.44722e-18 1.44645e-18 3.61154e-22 -4 -3.5 -2.5 0.05 9.54096e-19 -2.5634e-19 0.000392699 
232 1 -1.73113e-22 1.44645e-18 3.61154e-22 -3 -3.5 -2.5 0.05 1.14115e-19 -1.73958e-20 0.000392699 
236 1 9.38381e-27 1.44645e-18 3.61153e-22 -2 -3.5 -2.5 0.05 -5.80344e-20 4.11915e-21 0.000392699 
240 1 1.03488e-25 1.44645e-18 3.6209e-22 -1 -3.5 -2.5 0.05 6.18761e-20 5.68001e-19 0.000392699 
243 1 -4.62809e-14 -1.72791e-22 3.60971e-22 -4.5 -3 -2.5 0.05 -5.39391e-19 -2.2381e-19 0.000392711 
247 1 1.44645e-18 -1.73112e-22 3.61154e-22 -3.5 -3 -2.5 0.05 -1.5974e-19 2.48749e-19 0.000392699 
251 1 -4.5197e-23 -1.73112e-22 3.61154e-22 -2.5 -3 -2.5 0.05 5.71034e-20 9.16465e-21 0.000392699 
255 1 1.29947e-27 -1.73112e-22 3.61154e-22 -1.5 -3 -2.5 0.05 -2.65939e-19 -8.54894e-20 0.000392699 
259 1 -7.82676e-26 -1.73089e-22 3.58317e-22 -0.5 -3 -2.5 0.05 -2.50688e-18 3.92749e-19 0.000392699 
244 1 8.46041e-14 -4.5147e-23 3.61375e-22 -5 -2.5 -2.5 0.05 2.11195e-19 2.29454e-19 0.000392746 
248 1 1.44722e-18 -4.51969e-23 3.61154e-22 -4 -2.5 -2.5 0.05 9.001e-19 -2.1771e-19 0.000392699 
252 1 -1.73112e-22 -4.51971e-23 3.61154e-22 -3 -2.5 -2.5 0.05 6.01653e-20 2.12341e-20 0.000392699 
256 1 9.26301e-27 -4.51971e-23 3.61154e-22 -2 -2.5 -2.5 0.05 -1.11958e-19 4.27563e-20 0.000392699 
260 1 1.05758e-25 -4.5197e-23 3.6209e-22 -1 -2.5 -2.5 0.05 9.77366e-20 8.24436e-19 0.000392699 
263 1 -4.62809e-14 9.26289e-27 3.60972e-22 -4.5 -2 -2.5 0.05 -6.45596e-19 -5.4657e-19 0.000392711 
267 1 1.44645e-18 9.35377e-27 3.61153e-22 -3.5 -2 -2.5 0.05 -1.59763e-19 -1.72109e-19 0.000392699 
271 1 -4.51969e-23 9.12916e-27 3.61154e-22 -2.5 -2 -2.5 0.05 5.70721e-20 -4.117e-19 0.000392699 
275 1 1.58712e-27 9.05387e-27 3.61154e-22 -1.5 -2 -2.5 0.05 -2.65841e-19 -5.06367e-19 0.000392699 
279 1 2.46835e-25 2.60989e-25 3.5908e-22 -0.5 -2 -2.5 0.05 -2.61244e-18 -2.65661e-19 0.000392699 
264 1 8.46041e-14 1.42291e-27 3.61375e-22 -5 -1.5 -2.5 0.05 1.07148e-19 2.4628e-19 0.000392746 
268 1 1.44722e-18 1.88381e-27 3.61155e-22 -4 -1.5 -2.5 0.05 6.75813e-19 2.39959e-19 0.000392699 
272 1 -1.73113e-22 1.72356e-27 3.61155e-22 -3 -1.5 -2.5 0.05 6.69112e-20 2.96555e-19 0.000392699 
276 1 9.18524e-27 1.567e-27 3.61155e-22 -2 -1.5 -2.5 0.05 -1.05158e-19 3.18216e-19 0.000392699 
280 1 1.88328e-25 5.09578e-28 3.62093e-22 -1 -1.5 -2.5 0.05 2.79879e-20 7.70348e-19 0.000392699 
283 1 -4.62809e-14 3.1496e-25 3.6172e-22 -4.5 -1 -2.5 0.05 -2.76405e-19 8.3776e-19 0.000392711 
287 1 1.44645e-18 -3.61526e-26 3.62187e-22 -3.5 -1 -2.5 0.05 -3.75626e-22 1.18746e-18 0.000392699 
291 1 -4.51972e-23 7.76919e-26 3.62188e-22 -2.5 -1 -2.5 0.05 8.85555e-20 1.08248e-18 0.000392699 
295 1 4.51218e-28 1.69534e-25 3.6219e-22 -1.5 -1 -2.5 0.05 -4.21167e-19 9.6195e-19 0.000392699 
299 1 -1.67107e-24 6.72368e-25 3.5764e-22 -0.5 -1 -2.5 0.05 -1.95588e-18 8.76904e-19 0.000392699 
284 1 8.46041e-14 -2.33956e-24 3.58951e-22 -5 -0.5 -2.5 0.05 -8.62939e-20 -4.61174e-19 0.000392746 
288 1 1.44722e-18 4.47732e-25 3.59066e-22 -4 -0.5 -2.5 0.05 5.64823e-19 -3.50394e-18 0.000392699 
292 1 -1.72774e-22 -2.21563e-25 3.57917e-22 -3 -0.5 -2.5 0.05 2.39563e-19 -3.37014e-18 0.000392699 
296 1 2.87249e-25 6.23648e-25 3.59223e-22 -2 -0.5 -2.5 0.05 -2.07763e-19 -3.71932e-18 0.000392699 
300 1 4.6243e-25 -1.67822e-24 3.56712e-22 -1 -0.5 -2.5 0.05 -1.00287e-19 -1.25606e-18 0.000392699 
301 1 2.15522e-13 2.15522e-13 8.63329e-26 -5 -5 -2 0.05 -3.35595e-19 2.24401e-19 0.000392758 
302 1 -4.62953e-14 -4.62953e-14 1.48861e-25 -4.5 -4.5 -2 0.05 -7.16111e-19 -3.28398e-19 0.000392724 
305 1 -6.73313e-18 8.46001e-14 1.16915e-25 -4 -5 -2 0.05 9.09325e-19 -1.2832e-19 0.000392746 
306 1 1.44767e-18 -4.62809e-14 1.49265e-25 -3.5 -4.5 -2 0.05 3.08919e-20 -2.76507e-19 0.000392711 
309 1 2.10221e-22 8.46041e-14 1.18443e-25 -3 -5 -2 0.05 2.3507e-19 -6.03314e-20 0.000392746 
310 1 -4.52702e-23 -4.62809e-14 1.48722e-25 -2.5 -4.5 -2 0.05 2.43184e-20 -4.38315e-19 0.000392711 
313 1 -6.22676e-27 8.46041e-14 1.18291e-25 -2 -5 -2 0.05 2.38755e-19 -1.09903e-19 0.000392746 
314 1 1.01351e-27 -4.62809e-14 1.49505e-25 -1.5 -4.5 -2 0.05 -2.44114e-19 -7.04163e-19 0.000392711 