ITEM: TIMESTEP
5
ITEM: NUMBER OF ATOMS
4000
ITEM: BOX BOUNDS ff ff ff
-5 5
-5 5
-5 5
ITEM: ATOMS id type fx fy fz x y z radius mux muy muz 
1 1 1.92096e-14 1.92096e-14 -3.83187e-14 -5 -5 -5 0.05 5.2068e-08 5.2068e-08 0.000392699 
2 1 -4.62382e-14 -4.62382e-14 -1.69082e-13 -4.5 -4.5 -5 0.05 -1.62817e-12 -1.62817e-12 0.00039263 
3 1 -4.63018e-14 8.46037e-14 9.24854e-14 -4.5 -5 -4.5 0.05 4.6007e-12 3.24964e-12 0.000392734 
4 1 8.46037e-14 -4.63018e-14 9.24854e-14 -5 -4.5 -4.5 0.05 3.24964e-12 4.6007e-12 0.000392734 
5 1 1.4419e-18 -1.11642e-13 -1.0375e-13 -4 -5 -5 0.05 1.62635e-12 5.20602e-08 0.000392669 
8 1 1.45484e-18 -4.63098e-14 9.24418e-14 -4 -4.5 -4.5 0.05 -1.0662e-15 4.59841e-12 0.000392687 
6 1 1.44416e-18 -4.62237e-14 -1.69103e-13 -3.5 -4.5 -5 0.05 3.80609e-16 -1.62926e-12 0.000392617 
7 1 1.44588e-18 8.46058e-14 9.25027e-14 -3.5 -5 -4.5 0.05 2.15609e-16 3.24935e-12 0.000392722 
9 1 -1.08677e-22 -1.11638e-13 -1.03754e-13 -3 -5 -5 0.05 1.52501e-16 5.20602e-08 0.000392669 
12 1 -1.73393e-22 -4.63098e-14 9.24418e-14 -3 -4.5 -4.5 0.05 3.14199e-20 4.59841e-12 0.000392687 
10 1 -4.509e-23 -4.62237e-14 -1.69103e-13 -2.5 -4.5 -5 0.05 2.21679e-20 -1.62926e-12 0.000392617 
11 1 -4.52457e-23 8.46058e-14 9.25027e-14 -2.5 -5 -4.5 0.05 2.6933e-20 3.24935e-12 0.000392722 
13 1 5.41381e-27 -1.11638e-13 -1.03754e-13 -2 -5 -5 0.05 7.94728e-21 5.20602e-08 0.000392669 
16 1 9.46633e-27 -4.63098e-14 9.24418e-14 -2 -4.5 -4.5 0.05 6.61534e-24 4.59841e-12 0.000392687 
14 1 1.41364e-27 -4.62237e-14 -1.69103e-13 -1.5 -4.5 -5 0.05 3.40001e-25 -1.62926e-12 0.000392617 
15 1 1.41364e-27 8.46058e-14 9.25027e-14 -1.5 -5 -4.5 0.05 -9.00459e-28 3.24935e-12 0.000392722 
17 1 1.26218e-29 -1.11638e-13 -1.03754e-13 -1 -5 -5 0.05 1.59508e-26 5.20602e-08 0.000392669 
20 1 -1.167e-35 -4.63098e-14 9.24418e-14 -1 -4.5 -4.5 0.05 1.93801e-26 4.59841e-12 0.000392687 
18 1 2.79774e-35 -4.62237e-14 -1.69103e-13 -0.5 -4.5 -5 0.05 -1.49428e-25 -1.62926e-12 0.000392617 
19 1 5.47749e-37 8.46058e-14 9.25027e-14 -0.5 -5 -4.5 0.05 -2.2408e-27 3.24935e-12 0.000392722 
21 1 -1.11642e-13 1.4419e-18 -1.0375e-13 -5 -4 -5 0.05 5.20602e-08 1.62635e-12 0.000392669 
23 1 -4.63098e-14 1.45484e-18 9.24418e-14 -4.5 -4 -4.5 0.05 4.59841e-12 -1.0662e-15 0.000392687 
25 1 9.61416e-18 9.61416e-18 -1.69115e-13 -4 -4 -5 0.05 1.62598e-12 1.62598e-12 0.000392605 
27 1 1.44681e-18 1.45779e-18 9.24592e-14 -3.5 -4 -4.5 0.05 2.15592e-16 -1.06602e-15 0.000392675 
29 1 -4.91628e-22 9.61263e-18 -1.69119e-13 -3 -4 -5 0.05 1.52481e-16 1.62598e-12 0.000392605 
31 1 -4.52957e-23 1.45779e-18 9.24592e-14 -2.5 -4 -4.5 0.05 2.69131e-20 -1.06602e-15 0.000392675 
33 1 2.13803e-26 9.61263e-18 -1.69119e-13 -2 -4 -5 0.05 7.94826e-21 1.62598e-12 0.000392605 
35 1 1.41364e-27 1.45779e-18 9.24592e-14 -1.5 -4 -4.5 0.05 -1.14072e-26 -1.06602e-15 0.000392675 
37 1 2.70907e-36 9.61263e-18 -1.69119e-13 -1 -4 -5 0.05 -2.81988e-26 1.62598e-12 0.000392605 
39 1 8.21811e-35 1.45779e-18 9.24592e-14 -0.5 -4 -4.5 0.05 -9.09284e-26 -1.06602e-15 0.000392675 
22 1 -4.62237e-14 1.44416e-18 -1.69103e-13 -4.5 -3.5 -5 0.05 -1.62926e-12 3.80609e-16 0.000392617 
24 1 8.46058e-14 1.44588e-18 9.25027e-14 -5 -3.5 -4.5 0.05 3.24935e-12 2.15609e-16 0.000392722 
28 1 1.45779e-18 1.44681e-18 9.24592e-14 -4 -3.5 -4.5 0.05 -1.06602e-15 2.15592e-16 0.000392675 
26 1 1.44294e-18 1.44294e-18 -1.69123e-13 -3.5 -3.5 -5 0.05 3.80591e-16 3.80591e-16 0.000392605 
32 1 -1.73715e-22 1.44681e-18 9.24592e-14 -3 -3.5 -4.5 0.05 3.14464e-20 2.15592e-16 0.000392675 
30 1 -4.50167e-23 1.44294e-18 -1.69123e-13 -2.5 -3.5 -5 0.05 2.21746e-20 3.80591e-16 0.000392605 
36 1 9.44108e-27 1.44681e-18 9.24592e-14 -2 -3.5 -4.5 0.05 -7.0067e-28 2.15592e-16 0.000392675 
34 1 1.3884e-27 1.44294e-18 -1.69123e-13 -1.5 -3.5 -5 0.05 3.64819e-25 3.80591e-16 0.000392605 
40 1 -4.08178e-36 1.44681e-18 9.24592e-14 -1 -3.5 -4.5 0.05 5.59349e-27 2.15592e-16 0.000392675 
38 1 2.86339e-35 1.44294e-18 -1.69123e-13 -0.5 -3.5 -5 0.05 -1.54292e-25 3.80591e-16 0.000392605 
41 1 -1.11638e-13 -1.08677e-22 -1.03754e-13 -5 -3 -5 0.05 5.20602e-08 1.52501e-16 0.000392669 
43 1 -4.63098e-14 -1.73393e-22 9.24418e-14 -4.5 -3 -4.5 0.05 4.59841e-12 3.14196e-20 0.000392687 
45 1 9.61263e-18 -4.91628e-22 -1.69119e-13 -4 -3 -5 0.05 1.62598e-12 1.52481e-16 0.000392605 
47 1 1.44681e-18 -1.73715e-22 9.24592e-14 -3.5 -3 -4.5 0.05 2.15592e-16 3.14461e-20 0.000392675 
49 1 -4.91465e-22 -4.91465e-22 -1.69123e-13 -3 -3 -5 0.05 1.52481e-16 1.52481e-16 0.000392605 
51 1 -4.52956e-23 -1.73714e-22 9.24592e-14 -2.5 -3 -4.5 0.05 2.68933e-20 3.14395e-20 0.000392675 
53 1 2.13299e-26 -4.91465e-22 -1.69123e-13 -2 -3 -5 0.05 7.92841e-21 1.52481e-16 0.000392605 
55 1 1.41364e-27 -1.73714e-22 9.24592e-14 -1.5 -3 -4.5 0.05 -1.65876e-26 3.14395e-20 0.000392675 
57 1 -6.736e-37 -4.91465e-22 -1.69123e-13 -1 -3 -5 0.05 1.19292e-27 1.52481e-16 0.000392605 
59 1 8.30995e-35 -1.73714e-22 9.24592e-14 -0.5 -3 -4.5 0.05 -8.41462e-26 3.14395e-20 0.000392675 
42 1 -4.62237e-14 -4.509e-23 -1.69103e-13 -4.5 -2.5 -5 0.05 -1.62926e-12 2.21701e-20 0.000392617 
44 1 8.46058e-14 -4.52457e-23 9.25027e-14 -5 -2.5 -4.5 0.05 3.24935e-12 2.69396e-20 0.000392722 
48 1 1.45779e-18 -4.52957e-23 9.24592e-14 -4 -2.5 -4.5 0.05 -1.06602e-15 2.69131e-20 0.000392675 
46 1 1.44294e-18 -4.50167e-23 -1.69123e-13 -3.5 -2.5 -5 0.05 3.80591e-16 2.21754e-20 0.000392605 
52 1 -1.73714e-22 -4.52957e-23 9.24592e-14 -3 -2.5 -4.5 0.05 3.14398e-20 2.69065e-20 0.000392675 
50 1 -4.50167e-23 -4.50166e-23 -1.69123e-13 -2.5 -2.5 -5 0.05 2.21812e-20 2.21831e-20 0.000392605 
56 1 9.49157e-27 -4.52957e-23 9.24592e-14 -2 -2.5 -4.5 0.05 -1.32353e-23 2.69132e-20 0.000392675 
54 1 1.3884e-27 -4.50166e-23 -1.69123e-13 -1.5 -2.5 -5 0.05 3.64614e-25 2.2182e-20 0.000392605 
60 1 -2.05834e-36 -4.52957e-23 9.24592e-14 -1 -2.5 -4.5 0.05 -3.80719e-28 2.69132e-20 0.000392675 
58 1 3.15303e-35 -4.50166e-23 -1.69123e-13 -0.5 -2.5 -5 0.05 -1.65282e-25 2.21819e-20 0.000392605 
61 1 -1.11638e-13 5.41381e-27 -1.03754e-13 -5 -2 -5 0.05 5.20602e-08 7.94754e-21 0.000392669 
63 1 -4.63098e-14 9.46633e-27 9.24418e-14 -4.5 -2 -4.5 0.05 4.59841e-12 6.61091e-24 0.000392687 
65 1 9.61263e-18 2.1374e-26 -1.69119e-13 -4 -2 -5 0.05 1.62598e-12 7.95594e-21 0.000392605 
67 1 1.44681e-18 9.44109e-27 9.24592e-14 -3.5 -2 -4.5 0.05 2.15592e-16 6.61273e-24 0.000392675 
69 1 -4.91465e-22 2.13299e-26 -1.69123e-13 -3 -2 -5 0.05 1.52481e-16 7.93723e-21 0.000392605 
71 1 -4.52956e-23 9.49157e-27 9.24592e-14 -2.5 -2 -4.5 0.05 2.69132e-20 -1.32405e-23 0.000392675 
73 1 2.12794e-26 2.12857e-26 -1.69123e-13 -2 -2 -5 0.05 7.92838e-21 7.93425e-21 0.000392605 
75 1 1.43888e-27 9.46633e-27 9.24592e-14 -1.5 -2 -4.5 0.05 -3.89829e-26 1.32315e-23 0.000392675 
77 1 -3.32805e-36 2.12352e-26 -1.69123e-13 -1 -2 -5 0.05 1.83811e-26 7.92788e-21 0.000392605 
79 1 -2.52435e-29 9.46633e-27 9.24592e-14 -0.5 -2 -4.5 0.05 -7.56593e-26 1.32268e-23 0.000392675 
62 1 -4.62237e-14 1.40733e-27 -1.69103e-13 -4.5 -1.5 -5 0.05 -1.62926e-12 1.34653e-24 0.000392617 
64 1 8.46058e-14 1.41364e-27 9.25027e-14 -5 -1.5 -4.5 0.05 3.24935e-12 -7.93468e-28 0.000392722 
68 1 1.45779e-18 1.41364e-27 9.24592e-14 -4 -1.5 -4.5 0.05 -1.06602e-15 6.47925e-28 0.000392675 
66 1 1.44294e-18 1.41995e-27 -1.69123e-13 -3.5 -1.5 -5 0.05 3.80591e-16 1.06454e-25 0.000392605 
72 1 -1.73714e-22 1.41364e-27 9.24592e-14 -3 -1.5 -4.5 0.05 3.14398e-20 6.61753e-24 0.000392675 
70 1 -4.50167e-23 1.41995e-27 -1.69123e-13 -2.5 -1.5 -5 0.05 2.21811e-20 1.1182e-24 0.000392605 
76 1 9.46632e-27 1.43888e-27 9.24592e-14 -2 -1.5 -4.5 0.05 1.32217e-23 2.7923e-27 0.000392675 
74 1 1.41364e-27 1.41995e-27 -1.69123e-13 -1.5 -1.5 -5 0.05 4.78248e-25 1.21759e-25 0.000392605 
80 1 -2.52436e-29 1.43888e-27 9.24592e-14 -1 -1.5 -4.5 0.05 6.25192e-26 5.92217e-27 0.000392675 
78 1 5.28161e-35 1.41995e-27 -1.69123e-13 -0.5 -1.5 -5 0.05 -4.15407e-25 -2.05456e-25 0.000392605 
81 1 -1.11638e-13 1.26218e-29 -1.03754e-13 -5 -1 -5 0.05 5.20602e-08 -5.43561e-27 0.000392669 
83 1 -4.63098e-14 -1.53997e-36 9.24418e-14 -4.5 -1 -4.5 0.05 4.59841e-12 7.43557e-27 0.000392687 
85 1 9.61263e-18 -6.31187e-30 -1.69119e-13 -4 -1 -5 0.05 1.62598e-12 8.34008e-24 0.000392605 
87 1 1.44681e-18 -3.19716e-36 9.24592e-14 -3.5 -1 -4.5 0.05 2.15592e-16 1.48081e-26 0.000392675 
89 1 -4.91465e-22 -3.50422e-34 -1.69123e-13 -3 -1 -5 0.05 1.52481e-16 2.95946e-24 0.000392605 
91 1 -4.52956e-23 -3.63918e-36 9.24592e-14 -2.5 -1 -4.5 0.05 2.69131e-20 1.67735e-26 0.000392675 
93 1 2.12289e-26 6.3101e-30 -1.69123e-13 -2 -1 -5 0.05 7.92846e-21 6.66243e-24 0.000392605 
95 1 1.43888e-27 2.52435e-29 9.24592e-14 -1.5 -1 -4.5 0.05 4.3978e-26 1.9551e-26 0.000392675 
97 1 2.5182e-35 6.31087e-30 -1.69123e-13 -1 -1 -5 0.05 -2.00132e-25 7.61192e-26 0.000392605 
99 1 -2.52433e-29 2.52435e-29 9.24592e-14 -0.5 -1 -4.5 0.05 -2.79045e-25 3.75148e-27 0.000392675 
82 1 -4.62237e-14 -1.38382e-34 -1.69103e-13 -4.5 -0.5 -5 0.05 -1.62926e-12 1.19673e-24 0.000392617 
84 1 8.46058e-14 1.3794e-36 9.25027e-14 -5 -0.5 -4.5 0.05 3.24935e-12 -6.03383e-27 0.000392722 
88 1 1.45779e-18 8.35331e-36 9.24592e-14 -4 -0.5 -4.5 0.05 -1.06602e-15 -3.50615e-26 0.000392675 
86 1 1.44294e-18 7.69144e-36 -1.69123e-13 -3.5 -0.5 -5 0.05 3.80591e-16 -3.10864e-26 0.000392605 
92 1 -1.73714e-22 8.07233e-36 9.24592e-14 -3 -0.5 -4.5 0.05 3.14398e-20 -3.43104e-26 0.000392675 
90 1 -4.50167e-23 -1.16154e-34 -1.69123e-13 -2.5 -0.5 -5 0.05 2.21812e-20 1.02156e-24 0.000392605 
96 1 9.46629e-27 -2.52435e-29 9.24592e-14 -2 -0.5 -4.5 0.05 1.32199e-23 -4.00281e-26 0.000392675 
94 1 1.41364e-27 2.9974e-35 -1.69123e-13 -1.5 -0.5 -5 0.05 2.358e-25 -2.1968e-25 0.000392605 
100 1 -2.54048e-29 2.52436e-29 9.24592e-14 -1 -0.5 -4.5 0.05 -5.21448e-26 -2.0538e-27 0.000392675 
98 1 6.95569e-35 4.35839e-35 -1.69123e-13 -0.5 -0.5 -5 0.05 -2.42831e-25 -2.84022e-25 0.000392605 
101 1 2.15516e-13 2.15516e-13 5.78991e-18 -5 -5 -4 0.05 1.62674e-12 1.62674e-12 0.000392758 
102 1 -4.62953e-14 -4.62953e-14 5.77844e-18 -4.5 -4.5 -4 0.05 -7.8739e-16 -7.8739e-16 0.000392724 
105 1 -6.73805e-18 8.45939e-14 5.78089e-18 -4 -5 -4 0.05 1.06749e-15 1.62634e-12 0.000392746 
106 1 1.44767e-18 -4.62809e-14 5.77482e-18 -3.5 -4.5 -4 0.05 -2.64235e-19 -7.87475e-16 0.000392711 
109 1 2.1022e-22 8.4598e-14 5.78172e-18 -3 -5 -4 0.05 7.14353e-20 1.62634e-12 0.000392746 
110 1 -4.52706e-23 -4.62809e-14 5.77482e-18 -2.5 -4.5 -4 0.05 1.3236e-23 -7.87475e-16 0.000392711 
113 1 -6.48759e-27 8.4598e-14 5.78172e-18 -2 -5 -4 0.05 -6.61742e-24 1.62634e-12 0.000392746 
114 1 1.43887e-27 -4.62809e-14 5.77482e-18 -1.5 -4.5 -4 0.05 -7.34008e-27 -7.87475e-16 0.000392711 
117 1 -2.98376e-36 8.4598e-14 5.78172e-18 -1 -5 -4 0.05 1.16856e-26 1.62634e-12 0.000392746 
118 1 2.52436e-29 -4.62809e-14 5.77482e-18 -0.5 -4.5 -4 0.05 -8.80657e-26 -7.87475e-16 0.000392711 
121 1 8.45939e-14 -6.73805e-18 5.78089e-18 -5 -4 -4 0.05 1.62634e-12 1.06749e-15 0.000392746 
125 1 1.44383e-18 1.44383e-18 5.76953e-18 -4 -4 -4 0.05 1.06714e-15 1.06714e-15 0.000392699 
129 1 -1.73278e-22 1.4423e-18 5.77036e-18 -3 -4 -4 0.05 7.14552e-20 1.06714e-15 0.000392699 
133 1 9.41584e-27 1.4423e-18 5.77036e-18 -2 -4 -4 0.05 6.61769e-24 1.06714e-15 0.000392699 
137 1 -2.27781e-36 1.4423e-18 5.77036e-18 -1 -4 -4 0.05 5.20469e-27 1.06714e-15 0.000392699 
122 1 -4.62809e-14 1.44767e-18 5.77482e-18 -4.5 -3.5 -4 0.05 -7.87475e-16 -2.64241e-19 0.000392711 
126 1 1.44645e-18 1.44645e-18 5.77119e-18 -3.5 -3.5 -4 0.05 -2.64235e-19 -2.64235e-19 0.000392699 
130 1 -4.51972e-23 1.44645e-18 5.77119e-18 -2.5 -3.5 -4 0.05 6.61964e-24 -2.64228e-19 0.000392699 
134 1 1.41363e-27 1.44645e-18 5.77119e-18 -1.5 -3.5 -4 0.05 -1.43346e-26 -2.64228e-19 0.000392699 
138 1 8.13869e-35 1.44645e-18 5.77119e-18 -0.5 -3.5 -4 0.05 -8.87818e-26 -2.64228e-19 0.000392699 
141 1 8.4598e-14 2.1022e-22 5.78172e-18 -5 -3 -4 0.05 1.62634e-12 7.14353e-20 0.000392746 
145 1 1.4423e-18 -1.73278e-22 5.77036e-18 -4 -3 -4 0.05 1.06714e-15 7.14618e-20 0.000392699 
149 1 -1.73115e-22 -1.73115e-22 5.77119e-18 -3 -3 -4 0.05 7.14618e-20 7.14684e-20 0.000392699 
153 1 9.41582e-27 -1.73115e-22 5.77119e-18 -2 -3 -4 0.05 2.64684e-23 7.14486e-20 0.000392699 
157 1 1.49536e-36 -1.73115e-22 5.77119e-18 -1 -3 -4 0.05 4.52587e-27 7.14486e-20 0.000392699 
142 1 -4.62809e-14 -4.52706e-23 5.77482e-18 -4.5 -2.5 -4 0.05 -7.87475e-16 1.32335e-23 0.000392711 
146 1 1.44645e-18 -4.51972e-23 5.77119e-18 -3.5 -2.5 -4 0.05 -2.64228e-19 6.62226e-24 0.000392699 
150 1 -4.51972e-23 -4.51972e-23 5.77119e-18 -2.5 -2.5 -4 0.05 -6.61759e-24 -6.61534e-24 0.000392699 
154 1 1.41364e-27 -4.51972e-23 5.77119e-18 -1.5 -2.5 -4 0.05 -1.0086e-26 2.83568e-27 0.000392699 
158 1 9.048e-35 -4.51972e-23 5.77119e-18 -0.5 -2.5 -4 0.05 -1.02381e-25 2.53748e-27 0.000392699 
161 1 8.4598e-14 -6.48759e-27 5.78172e-18 -5 -2 -4 0.05 1.62634e-12 -6.61887e-24 0.000392746 
165 1 1.4423e-18 9.3906e-27 5.77036e-18 -4 -2 -4 0.05 1.06714e-15 6.61084e-24 0.000392699 
169 1 -1.73115e-22 9.41584e-27 5.77119e-18 -3 -2 -4 0.05 7.1442e-20 2.64642e-23 0.000392699 
173 1 9.54205e-27 9.51682e-27 5.77119e-18 -2 -2 -4 0.05 3.30917e-23 3.30843e-23 0.000392699 
177 1 -1.79589e-35 9.54206e-27 5.77119e-18 -1 -2 -4 0.05 9.87065e-27 3.30846e-23 0.000392699 
162 1 -4.62809e-14 1.3884e-27 5.77482e-18 -4.5 -1.5 -4 0.05 -7.87475e-16 -4.99136e-27 0.000392711 
166 1 1.44645e-18 1.43888e-27 5.77119e-18 -3.5 -1.5 -4 0.05 -2.64228e-19 7.38709e-27 0.000392699 
170 1 -4.51971e-23 1.41364e-27 5.77119e-18 -2.5 -1.5 -4 0.05 6.33977e-27 5.18011e-28 0.000392699 
174 1 1.41364e-27 1.41364e-27 5.77119e-18 -1.5 -1.5 -4 0.05 -2.27614e-26 -7.19639e-27 0.000392699 
178 1 1.0151e-34 1.41364e-27 5.77119e-18 -0.5 -1.5 -4 0.05 -3.29179e-26 1.83414e-26 0.000392699 
181 1 8.4598e-14 -3.1654e-36 5.78172e-18 -5 -1 -4 0.05 1.62634e-12 1.23044e-26 0.000392746 
185 1 1.4423e-18 -8.87451e-37 5.77036e-18 -4 -1 -4 0.05 1.06714e-15 3.50994e-27 0.000392699 
189 1 -1.73115e-22 -3.44635e-36 5.77119e-18 -3 -1 -4 0.05 7.14419e-20 1.5021e-26 0.000392699 
193 1 9.54205e-27 2.52435e-29 5.77119e-18 -2 -1 -4 0.05 3.30686e-23 1.1359e-26 0.000392699 
197 1 1.22253e-35 -9.41607e-36 5.77119e-18 -1 -1 -4 0.05 -1.36234e-26 4.13771e-26 0.000392699 
182 1 -4.62809e-14 -2.52435e-29 5.77482e-18 -4.5 -0.5 -4 0.05 -7.87475e-16 -2.21495e-26 0.000392711 
186 1 1.44645e-18 2.52436e-29 5.77119e-18 -3.5 -0.5 -4 0.05 -2.64228e-19 -3.42087e-26 0.000392699 
190 1 -4.51971e-23 7.85906e-36 5.77119e-18 -2.5 -0.5 -4 0.05 -7.68797e-27 -3.56225e-26 0.000392699 
194 1 1.4139e-27 7.72237e-36 5.77119e-18 -1.5 -0.5 -4 0.05 8.84525e-26 -3.47549e-26 0.000392699 
198 1 -9.96587e-31 1.97399e-35 5.77119e-18 -0.5 -0.5 -4 0.05 -3.4767e-25 -8.59497e-26 0.000392699 
103 1 -4.62729e-14 8.4602e-14 5.77927e-18 -4.5 -5 -3.5 0.05 2.15511e-16 9.63744e-16 0.000392758 
104 1 8.4602e-14 -4.62729e-14 5.77927e-18 -5 -4.5 -3.5 0.05 9.63744e-16 2.15511e-16 0.000392758 
108 1 1.44427e-18 -4.62809e-14 5.7756e-18 -4 -4.5 -3.5 0.05 -1.71047e-19 2.15375e-16 0.000392711 
107 1 1.44552e-18 8.46041e-14 5.78098e-18 -3.5 -5 -3.5 0.05 1.5275e-19 9.63826e-16 0.000392746 
112 1 -1.7279e-22 -4.62809e-14 5.7756e-18 -3 -4.5 -3.5 0.05 -4.63134e-23 2.15375e-16 0.000392711 
111 1 -4.5147e-23 8.46041e-14 5.78098e-18 -2.5 -5 -3.5 0.05 2.05039e-27 9.63826e-16 0.000392746 
116 1 9.46634e-27 -4.62809e-14 5.7756e-18 -2 -4.5 -3.5 0.05 -1.32353e-23 2.15375e-16 0.000392711 
115 1 1.46413e-27 8.46041e-14 5.78098e-18 -1.5 -5 -3.5 0.05 6.61688e-24 9.63826e-16 0.000392746 
120 1 -4.68786e-36 -4.62809e-14 5.7756e-18 -1 -4.5 -3.5 0.05 1.01417e-26 2.15375e-16 0.000392711 
119 1 8.76042e-38 8.46041e-14 5.78098e-18 -0.5 -5 -3.5 0.05 -2.40823e-27 9.63826e-16 0.000392746 
123 1 -4.62809e-14 1.44427e-18 5.7756e-18 -4.5 -4 -3.5 0.05 2.15375e-16 -1.71048e-19 0.000392711 
127 1 1.44645e-18 1.44722e-18 5.77732e-18 -3.5 -4 -3.5 0.05 1.52691e-19 -1.70988e-19 0.000392699 
131 1 -4.51972e-23 1.44722e-18 5.77732e-18 -2.5 -4 -3.5 0.05 -6.61443e-24 -1.71001e-19 0.000392699 
135 1 1.43888e-27 1.44722e-18 5.77732e-18 -1.5 -4 -3.5 0.05 1.98406e-23 -1.70962e-19 0.000392699 
139 1 8.33488e-35 1.44722e-18 5.77732e-18 -0.5 -4 -3.5 0.05 -9.83709e-26 -1.70962e-19 0.000392699 
124 1 8.46041e-14 1.44552e-18 5.78098e-18 -5 -3.5 -3.5 0.05 9.63826e-16 1.5275e-19 0.000392746 
128 1 1.44722e-18 1.44645e-18 5.77732e-18 -4 -3.5 -3.5 0.05 -1.70981e-19 1.52698e-19 0.000392699 
132 1 -1.73112e-22 1.44645e-18 5.77731e-18 -3 -3.5 -3.5 0.05 -6.61654e-23 1.52698e-19 0.000392699 
136 1 9.44109e-27 1.44645e-18 5.77731e-18 -2 -3.5 -3.5 0.05 2.52326e-27 1.52691e-19 0.000392699 
140 1 1.67753e-36 1.44645e-18 5.77731e-18 -1 -3.5 -3.5 0.05 4.3269e-28 1.52704e-19 0.000392699 
143 1 -4.62809e-14 -1.7279e-22 5.7756e-18 -4.5 -3 -3.5 0.05 2.15375e-16 -4.63229e-23 0.000392711 
147 1 1.44645e-18 -1.73112e-22 5.77731e-18 -3.5 -3 -3.5 0.05 1.52691e-19 -6.61715e-23 0.000392699 
151 1 -4.51971e-23 -1.73112e-22 5.77732e-18 -2.5 -3 -3.5 0.05 -6.61447e-24 -7.9408e-23 0.000392699 
155 1 1.43888e-27 -1.73112e-22 5.77732e-18 -1.5 -3 -3.5 0.05 1.32246e-23 -5.29363e-23 0.000392699 
159 1 8.52322e-35 -1.73112e-22 5.77732e-18 -0.5 -3 -3.5 0.05 -9.36709e-26 -5.29367e-23 0.000392699 
144 1 8.46041e-14 -4.5147e-23 5.78098e-18 -5 -2.5 -3.5 0.05 9.63826e-16 2.12395e-27 0.000392746 
148 1 1.44722e-18 -4.51972e-23 5.77732e-18 -4 -2.5 -3.5 0.05 -1.70994e-19 -6.61877e-24 0.000392699 
152 1 -1.73112e-22 -4.51971e-23 5.77732e-18 -3 -2.5 -3.5 0.05 -7.94021e-23 -6.61692e-24 0.000392699 
156 1 9.34011e-27 -4.51971e-23 5.77732e-18 -2 -2.5 -3.5 0.05 2.64753e-23 3.97085e-23 0.000392699 
160 1 4.92049e-36 -4.51971e-23 5.77732e-18 -1 -2.5 -3.5 0.05 -8.9879e-27 2.64799e-23 0.000392699 
163 1 -4.62809e-14 9.46633e-27 5.7756e-18 -4.5 -2 -3.5 0.05 2.15375e-16 -1.32424e-23 0.000392711 
167 1 1.44645e-18 9.49158e-27 5.77731e-18 -3.5 -2 -3.5 0.05 1.52684e-19 -5.3267e-27 0.000392699 
171 1 -4.51971e-23 9.36536e-27 5.77732e-18 -2.5 -2 -3.5 0.05 3.97105e-23 2.64649e-23 0.000392699 
175 1 1.3884e-27 9.34011e-27 5.77732e-18 -1.5 -2 -3.5 0.05 -2.91674e-26 -1.32395e-23 0.000392699 
179 1 6.71643e-35 9.34011e-27 5.77732e-18 -0.5 -2 -3.5 0.05 -9.70458e-26 -1.32431e-23 0.000392699 
164 1 8.46041e-14 1.46413e-27 5.78098e-18 -5 -1.5 -3.5 0.05 9.63826e-16 6.6161e-24 0.000392746 
168 1 1.44722e-18 1.41364e-27 5.77732e-18 -4 -1.5 -3.5 0.05 -1.70955e-19 1.98536e-23 0.000392699 
172 1 -1.73112e-22 1.43888e-27 5.77732e-18 -3 -1.5 -3.5 0.05 -5.29366e-23 1.32356e-23 0.000392699 
176 1 9.31488e-27 1.3884e-27 5.77732e-18 -2 -1.5 -3.5 0.05 -1.32482e-23 4.85322e-27 0.000392699 
180 1 -1.51012e-35 1.41364e-27 5.77732e-18 -1 -1.5 -3.5 0.05 3.92622e-26 4.81181e-27 0.000392699 
183 1 -4.62809e-14 2.52435e-29 5.7756e-18 -4.5 -1 -3.5 0.05 2.15375e-16 5.63601e-27 0.000392711 
187 1 1.44645e-18 2.52435e-29 5.77731e-18 -3.5 -1 -3.5 0.05 1.52698e-19 1.2331e-26 0.000392699 
191 1 -4.51971e-23 2.52435e-29 5.77732e-18 -2.5 -1 -3.5 0.05 2.64698e-23 1.41177e-26 0.000392699 
195 1 1.3884e-27 -2.98245e-36 5.77732e-18 -1.5 -1 -3.5 0.05 5.1523e-26 1.64535e-26 0.000392699 
199 1 2.44469e-34 5.15855e-37 5.77732e-18 -0.5 -1 -3.5 0.05 -2.44629e-25 2.82397e-27 0.000392699 
184 1 8.46041e-14 4.09907e-37 5.78098e-18 -5 -0.5 -3.5 0.05 9.63826e-16 -5.67385e-27 0.000392746 
188 1 1.44722e-18 2.52436e-29 5.77732e-18 -4 -0.5 -3.5 0.05 -1.70955e-19 -3.58459e-26 0.000392699 
192 1 -1.73112e-22 2.52436e-29 5.77732e-18 -3 -0.5 -3.5 0.05 -5.29265e-23 -3.42118e-26 0.000392699 
196 1 9.31483e-27 -2.52435e-29 5.77732e-18 -2 -0.5 -3.5 0.05 -1.32522e-23 -4.13771e-26 0.000392699 
200 1 -2.85881e-33 1.37742e-36 5.77732e-18 -1 -0.5 -3.5 0.05 -1.15011e-26 -8.45085e-27 0.000392699 
201 1 2.15522e-13 2.15522e-13 8.72928e-22 -5 -5 -3 0.05 1.52523e-16 1.52523e-16 0.000392758 
202 1 -4.62953e-14 -4.62953e-14 1.38143e-21 -4.5 -4.5 -3 0.05 6.59404e-20 6.59428e-20 0.000392724 
205 1 -6.73313e-18 8.46001e-14 1.12731e-21 -4 -5 -3 0.05 7.14419e-20 1.52469e-16 0.000392746 
206 1 1.44767e-18 -4.62809e-14 1.38141e-21 -3.5 -4.5 -3 0.05 -3.97281e-23 6.58767e-20 0.000392711 
209 1 2.10222e-22 8.46041e-14 1.12747e-21 -3 -5 -3 0.05 4.63239e-23 1.52469e-16 0.000392746 
210 1 -4.52705e-23 -4.62809e-14 1.38141e-21 -2.5 -4.5 -3 0.05 6.61725e-24 6.58833e-20 0.000392711 
213 1 -6.58857e-27 8.46041e-14 1.12747e-21 -2 -5 -3 0.05 6.61549e-24 1.52469e-16 0.000392746 
214 1 1.41364e-27 -4.62809e-14 1.38141e-21 -1.5 -4.5 -3 0.05 6.61219e-24 6.58899e-20 0.000392711 
217 1 -1.74537e-36 8.46041e-14 1.12747e-21 -1 -5 -3 0.05 1.36384e-26 1.52469e-16 0.000392746 
218 1 -2.52435e-29 -4.62809e-14 1.38141e-21 -0.5 -4.5 -3 0.05 -8.88343e-26 6.58899e-20 0.000392711 
221 1 8.46001e-14 -6.73313e-18 1.12731e-21 -5 -4 -3 0.05 1.52469e-16 7.14419e-20 0.000392746 
225 1 1.44875e-18 1.44875e-18 1.38108e-21 -4 -4 -3 0.05 7.14155e-20 7.14089e-20 0.000392699 
229 1 -1.73276e-22 1.44722e-18 1.38124e-21 -3 -4 -3 0.05 4.63336e-23 7.14155e-20 0.000392699 
233 1 9.3906e-27 1.44722e-18 1.38124e-21 -2 -4 -3 0.05 -3.13182e-27 7.1389e-20 0.000392699 
237 1 8.78309e-37 1.44722e-18 1.38124e-21 -1 -4 -3 0.05 -1.81496e-27 7.13824e-20 0.000392699 
222 1 -4.62809e-14 1.44767e-18 1.38141e-21 -4.5 -3.5 -3 0.05 6.58809e-20 -3.9708e-23 0.000392711 
226 1 1.44645e-18 1.44645e-18 1.3814e-21 -3.5 -3.5 -3 0.05 -3.31088e-23 -3.30852e-23 0.000392699 
230 1 -4.51971e-23 1.44645e-18 1.3814e-21 -2.5 -3.5 -3 0.05 -6.61733e-24 -4.6322e-23 0.000392699 
234 1 1.41364e-27 1.44645e-18 1.3814e-21 -1.5 -3.5 -3 0.05 -7.54327e-27 -5.95581e-23 0.000392699 
238 1 7.27902e-35 1.44645e-18 1.3814e-21 -0.5 -3.5 -3 0.05 -8.59971e-26 -5.9557e-23 0.000392699 
241 1 8.46041e-14 2.10222e-22 1.12747e-21 -5 -3 -3 0.05 1.52469e-16 4.63239e-23 0.000392746 
245 1 1.44722e-18 -1.73276e-22 1.38124e-21 -4 -3 -3 0.05 7.14221e-20 4.63239e-23 0.000392699 
249 1 -1.73113e-22 -1.73113e-22 1.3814e-21 -3 -3 -3 0.05 2.64795e-23 2.64703e-23 0.000392699 
253 1 9.39061e-27 -1.73113e-22 1.3814e-21 -2 -3 -3 0.05 -1.32344e-23 6.61767e-23 0.000392699 
257 1 8.56844e-36 -1.73113e-22 1.3814e-21 -1 -3 -3 0.05 -4.59832e-27 6.61824e-23 0.000392699 
242 1 -4.62809e-14 -4.52705e-23 1.38141e-21 -4.5 -2.5 -3 0.05 6.58875e-20 6.61343e-24 0.000392711 
246 1 1.44645e-18 -4.51971e-23 1.3814e-21 -3.5 -2.5 -3 0.05 -4.63452e-23 -6.61339e-24 0.000392699 
250 1 -4.51972e-23 -4.51972e-23 1.3814e-21 -2.5 -2.5 -3 0.05 1.98542e-23 1.98541e-23 0.000392699 
254 1 1.36315e-27 -4.51971e-23 1.3814e-21 -1.5 -2.5 -3 0.05 -2.63897e-27 6.61905e-24 0.000392699 
258 1 8.09896e-35 -4.51971e-23 1.3814e-21 -0.5 -2.5 -3 0.05 -1.01575e-25 6.61616e-24 0.000392699 
261 1 8.46041e-14 -6.58857e-27 1.12747e-21 -5 -2 -3 0.05 1.52469e-16 6.6152e-24 0.000392746 
265 1 1.44722e-18 9.44109e-27 1.38124e-21 -4 -2 -3 0.05 7.13956e-20 -8.0232e-27 0.000392699 
269 1 -1.73113e-22 9.36536e-27 1.3814e-21 -3 -2 -3 0.05 6.61834e-23 -1.32434e-23 0.000392699 
273 1 9.4411e-27 9.46633e-27 1.3814e-21 -2 -2 -3 0.05 -2.6471e-23 -2.64758e-23 0.000392699 
277 1 -1.25824e-35 9.51682e-27 1.3814e-21 -1 -2 -3 0.05 3.60071e-27 -2.64786e-23 0.000392699 
262 1 -4.62809e-14 1.43888e-27 1.38141e-21 -4.5 -1.5 -3 0.05 6.58941e-20 -5.34057e-27 0.000392711 
266 1 1.44645e-18 1.41364e-27 1.3814e-21 -3.5 -1.5 -3 0.05 -5.95799e-23 1.07692e-26 0.000392699 
270 1 -4.51971e-23 1.3884e-27 1.3814e-21 -2.5 -1.5 -3 0.05 6.62966e-24 4.32325e-27 0.000392699 
274 1 1.3884e-27 1.41364e-27 1.3814e-21 -1.5 -1.5 -3 0.05 -1.97846e-26 -3.03733e-27 0.000392699 
278 1 9.66993e-35 1.41364e-27 1.3814e-21 -0.5 -1.5 -3 0.05 -4.37046e-26 1.87655e-26 0.000392699 
281 1 8.46041e-14 -2.53508e-36 1.12747e-21 -5 -1 -3 0.05 1.52469e-16 1.45611e-26 0.000392746 
285 1 1.44722e-18 -1.7771e-36 1.38124e-21 -4 -1 -3 0.05 7.13956e-20 4.02297e-27 0.000392699 
289 1 -1.73113e-22 -2.89459e-36 1.3814e-21 -3 -1 -3 0.05 6.61835e-23 1.42326e-26 0.000392699 
293 1 9.46634e-27 -1.88172e-36 1.3814e-21 -2 -1 -3 0.05 -2.64898e-23 1.01767e-26 0.000392699 
297 1 1.82046e-35 -8.87951e-36 1.3814e-21 -1 -1 -3 0.05 -1.90856e-26 3.8549e-26 0.000392699 
282 1 -4.62809e-14 -7.76557e-34 1.38141e-21 -4.5 -0.5 -3 0.05 6.58941e-20 -2.47245e-26 0.000392711 
286 1 1.44645e-18 6.609e-36 1.3814e-21 -3.5 -0.5 -3 0.05 -5.95673e-23 -3.11162e-26 0.000392699 
290 1 -4.5197e-23 -2.52435e-29 1.3814e-21 -2.5 -0.5 -3 0.05 6.61169e-24 -3.10873e-26 0.000392699 
294 1 1.38866e-27 5.13965e-36 1.3814e-21 -1.5 -0.5 -3 0.05 9.27076e-26 -3.07945e-26 0.000392699 
298 1 -9.32098e-31 2.12373e-35 1.3814e-21 -0.5 -0.5 -3 0.05 -3.24021e-25 -8.16074e-26 0.000392699 
203 1 -4.62729e-14 8.4602e-14 3.61191e-22 -4.5 -5 -2.5 0.05 2.69529e-20 6.33282e-20 0.000392758 
204 1 8.4602e-14 -4.62729e-14 3.61191e-22 -5 -4.5 -2.5 0.05 6.33282e-20 2.69529e-20 0.000392758 
208 1 1.44426e-18 -4.62809e-14 3.6097e-22 -4 -4.5 -2.5 0.05 3.97059e-23 2.68933e-20 0.000392711 
207 1 1.44552e-18 8.46041e-14 3.61375e-22 -3.5 -5 -2.5 0.05 6.61573e-24 6.33944e-20 0.000392746 
212 1 -1.72791e-22 -4.62809e-14 3.6097e-22 -3 -4.5 -2.5 0.05 -6.5999e-24 2.68999e-20 0.000392711 
211 1 -4.51471e-23 8.46041e-14 3.61374e-22 -2.5 -5 -2.5 0.05 -2.647e-23 6.3401e-20 0.000392746 
216 1 9.34012e-27 -4.62809e-14 3.6097e-22 -2 -4.5 -2.5 0.05 -1.324e-23 2.68999e-20 0.000392711 
215 1 1.43888e-27 8.46041e-14 3.61375e-22 -1.5 -5 -2.5 0.05 -6.61925e-24 6.33878e-20 0.000392746 
220 1 -2.52436e-29 -4.62809e-14 3.6097e-22 -1 -4.5 -2.5 0.05 6.09806e-27 2.68999e-20 0.000392711 
219 1 -2.52435e-29 8.46041e-14 3.61375e-22 -0.5 -5 -2.5 0.05 1.66471e-27 6.33878e-20 0.000392746 
223 1 -4.62809e-14 1.44426e-18 3.6097e-22 -4.5 -4 -2.5 0.05 2.68933e-20 3.97033e-23 0.000392711 
227 1 1.44645e-18 1.44722e-18 3.61154e-22 -3.5 -4 -2.5 0.05 1.32148e-23 -1.32357e-23 0.000392699 
231 1 -4.51972e-23 1.44722e-18 3.61154e-22 -2.5 -4 -2.5 0.05 -6.61701e-24 -6.61946e-24 0.000392699 
235 1 1.3884e-27 1.44722e-18 3.61154e-22 -1.5 -4 -2.5 0.05 -1.98553e-23 -1.48686e-27 0.000392699 
239 1 7.10595e-35 1.44722e-18 3.61154e-22 -0.5 -4 -2.5 0.05 -8.76439e-26 -1.04892e-27 0.000392699 
224 1 8.46041e-14 1.44552e-18 3.61375e-22 -5 -3.5 -2.5 0.05 6.33944e-20 6.61837e-24 0.000392746 
228 1 1.44722e-18 1.44645e-18 3.61154e-22 -4 -3.5 -2.5 0.05 -1.32292e-23 1.32337e-23 0.000392699 
232 1 -1.73112e-22 1.44645e-18 3.61154e-22 -3 -3.5 -2.5 0.05 6.62848e-24 -4.63247e-23 0.000392699 
236 1 9.3906e-27 1.44645e-18 3.61154e-22 -2 -3.5 -2.5 0.05 -6.62043e-24 1.32354e-23 0.000392699 
240 1 6.81421e-37 1.44645e-18 3.61154e-22 -1 -3.5 -2.5 0.05 -2.8898e-27 6.21241e-27 0.000392699 
243 1 -4.62809e-14 -1.72791e-22 3.6097e-22 -4.5 -3 -2.5 0.05 2.68999e-20 -6.61325e-24 0.000392711 
247 1 1.44645e-18 -1.73112e-22 3.61154e-22 -3.5 -3 -2.5 0.05 -4.63452e-23 6.62215e-24 0.000392699 
251 1 -4.51972e-23 -1.73112e-22 3.61154e-22 -2.5 -3 -2.5 0.05 2.64688e-23 6.62138e-24 0.000392699 
255 1 1.46413e-27 -1.73112e-22 3.61154e-22 -1.5 -3 -2.5 0.05 -1.32354e-23 -6.6132e-24 0.000392699 
259 1 7.2655e-35 -1.73112e-22 3.61154e-22 -0.5 -3 -2.5 0.05 -7.75648e-26 -6.6154e-24 0.000392699 
244 1 8.46041e-14 -4.51471e-23 3.61374e-22 -5 -2.5 -2.5 0.05 6.3401e-20 -2.64676e-23 0.000392746 
248 1 1.44722e-18 -4.51972e-23 3.61154e-22 -4 -2.5 -2.5 0.05 -6.61316e-24 -6.61781e-24 0.000392699 
252 1 -1.73112e-22 -4.51972e-23 3.61154e-22 -3 -2.5 -2.5 0.05 6.62853e-24 2.647e-23 0.000392699 
256 1 9.3906e-27 -4.51971e-23 3.61154e-22 -2 -2.5 -2.5 0.05 -1.98549e-23 -1.32318e-23 0.000392699 
260 1 5.32085e-36 -4.51971e-23 3.61154e-22 -1 -2.5 -2.5 0.05 -1.75412e-26 9.81485e-27 0.000392699 
263 1 -4.62809e-14 9.36536e-27 3.6097e-22 -4.5 -2 -2.5 0.05 2.68999e-20 -1.32362e-23 0.000392711 
267 1 1.44645e-18 9.3906e-27 3.61154e-22 -3.5 -2 -2.5 0.05 1.32097e-23 -6.61967e-24 0.000392699 
271 1 -4.51971e-23 9.41585e-27 3.61154e-22 -2.5 -2 -2.5 0.05 -1.32325e-23 -1.98539e-23 0.000392699 
275 1 1.3884e-27 9.34011e-27 3.61154e-22 -1.5 -2 -2.5 0.05 -2.29046e-26 -8.24712e-28 0.000392699 
279 1 4.98903e-35 9.34011e-27 3.61154e-22 -0.5 -2 -2.5 0.05 -7.49599e-26 -8.18803e-27 0.000392699 
264 1 8.46041e-14 1.43888e-27 3.61375e-22 -5 -1.5 -2.5 0.05 6.33878e-20 -6.61882e-24 0.000392746 
268 1 1.44722e-18 1.41364e-27 3.61154e-22 -4 -1.5 -2.5 0.05 2.96663e-26 -1.98498e-23 0.000392699 
272 1 -1.73112e-22 1.46413e-27 3.61154e-22 -3 -1.5 -2.5 0.05 -6.60691e-24 -1.32335e-23 0.000392699 
276 1 9.31486e-27 1.36315e-27 3.61154e-22 -2 -1.5 -2.5 0.05 -1.95356e-26 4.85381e-27 0.000392699 
280 1 -1.62933e-35 1.41364e-27 3.61154e-22 -1 -1.5 -2.5 0.05 3.18531e-26 8.13853e-27 0.000392699 
283 1 -4.62809e-14 2.52435e-29 3.6097e-22 -4.5 -1 -2.5 0.05 2.68999e-20 1.06155e-27 0.000392711 
287 1 1.44645e-18 -4.28573e-36 3.61154e-22 -3.5 -1 -2.5 0.05 -9.28923e-27 5.77273e-27 0.000392699 
291 1 -4.51971e-23 -2.52436e-29 3.61154e-22 -2.5 -1 -2.5 0.05 -5.35384e-27 7.83065e-27 0.000392699 
295 1 1.3884e-27 -3.9432e-36 3.61154e-22 -1.5 -1 -2.5 0.05 6.04542e-26 8.86231e-27 0.000392699 
299 1 2.29468e-34 -1.7826e-36 3.61154e-22 -0.5 -1 -2.5 0.05 -2.22109e-25 -7.20268e-27 0.000392699 
284 1 8.46041e-14 -2.52435e-29 3.61375e-22 -5 -0.5 -2.5 0.05 6.33878e-20 2.19487e-27 0.000392746 
288 1 1.44722e-18 5.04871e-29 3.61154e-22 -4 -0.5 -2.5 0.05 2.12519e-26 -3.07639e-26 0.000392699 
292 1 -1.73112e-22 6.79962e-36 3.61154e-22 -3 -0.5 -2.5 0.05 -6.60125e-24 -2.87656e-26 0.000392699 
296 1 9.31476e-27 9.28478e-36 3.61154e-22 -2 -0.5 -2.5 0.05 -3.24451e-26 -3.37304e-26 0.000392699 
300 1 -2.91865e-32 -1.20173e-36 3.61154e-22 -1 -0.5 -2.5 0.05 -2.21932e-26 -3.24109e-27 0.000392699 
301 1 2.15522e-13 2.15522e-13 8.64465e-26 -5 -5 -2 0.05 7.94757e-21 7.94755e-21 0.000392758 
302 1 -4.62953e-14 -4.62953e-14 1.50086e-25 -4.5 -4.5 -2 0.05 -1.32122e-23 -6.61977e-24 0.000392724 
305 1 -6.73313e-18 8.46001e-14 1.18253e-25 -4 -5 -2 0.05 2.6468e-23 7.94094e-21 0.000392746 
306 1 1.44767e-18 -4.62809e-14 1.5006e-25 -3.5 -4.5 -2 0.05 6.59742e-24 6.62117e-24 0.000392711 
309 1 2.10222e-22 8.46041e-14 1.18481e-25 -3 -5 -2 0.05 -1.98532e-23 7.94757e-21 0.000392746 
310 1 -4.52703e-23 -4.62809e-14 1.50161e-25 -2.5 -4.5 -2 0.05 -6.61365e-24 1.32372e-23 0.000392711 
313 1 -6.51284e-27 8.46041e-14 1.18405e-25 -2 -5 -2 0.05 1.44712e-28 7.94095e-21 0.000392746 
314 1 1.41364e-27 -4.62809e-14 1.50313e-25 -1.5 -4.5 -2 0.05 -6.61614e-24 -3.27133e-28 0.000392711 