ITEM: TIMESTEP
0
ITEM: NUMBER OF ATOMS
4000
ITEM: BOX BOUNDS ff ff ff
-5 5
-5 5
-5 5
ITEM: ATOMS id type fx fy fz x y z radius mux muy muz 
1 1 1.9245e-14 1.92276e-14 -3.82537e-14 -5 -5 -5 0.05 0 0 0.000392699 
2 1 -4.62773e-14 -4.63079e-14 -1.68961e-13 -4.5 -4.5 -5 0.05 0 0 0.000392664 
3 1 -4.62981e-14 8.46662e-14 9.24194e-14 -4.5 -5 -4.5 0.05 5.2065e-08 -5.20604e-08 0.000392734 
4 1 8.46547e-14 -4.62708e-14 9.2403e-14 -5 -4.5 -4.5 0.05 -5.20512e-08 5.20558e-08 0.000392699 
5 1 -1.55559e-17 -1.11593e-13 -1.03684e-13 -4 -5 -5 0.05 -5.20673e-08 4.60154e-12 0.000392669 
8 1 2.80705e-18 -4.62482e-14 9.23676e-14 -4 -4.5 -4.5 0.05 5.20572e-08 5.20641e-08 0.000392687 
6 1 5.54199e-18 -4.62917e-14 -1.69041e-13 -3.5 -4.5 -5 0.05 -5.20634e-08 -1.15049e-11 0.000392669 
7 1 3.41095e-17 8.46581e-14 9.24471e-14 -3.5 -5 -4.5 0.05 5.20621e-08 -5.20641e-08 0.000392687 
9 1 6.13209e-18 -1.11595e-13 -1.037e-13 -3 -5 -5 0.05 -5.20667e-08 1.15039e-11 0.000392669 
12 1 1.12219e-17 -4.62598e-14 9.24088e-14 -3 -4.5 -4.5 0.05 5.20621e-08 5.20641e-08 0.000392687 
10 1 6.14097e-18 -4.62917e-14 -1.69047e-13 -2.5 -4.5 -5 0.05 -5.20667e-08 -1.15041e-11 0.000392669 
11 1 2.85711e-17 8.46581e-14 9.24471e-14 -2.5 -5 -4.5 0.05 5.20621e-08 -5.20641e-08 0.000392687 
13 1 6.13112e-18 -1.11595e-13 -1.037e-13 -2 -5 -5 0.05 -5.20667e-08 1.15041e-11 0.000392669 
16 1 1.12238e-17 -4.62598e-14 9.24088e-14 -2 -4.5 -4.5 0.05 5.20621e-08 5.20641e-08 0.000392687 
14 1 6.14095e-18 -4.62917e-14 -1.69047e-13 -1.5 -4.5 -5 0.05 -5.20667e-08 -1.15041e-11 0.000392669 
15 1 2.85712e-17 8.46581e-14 9.24471e-14 -1.5 -5 -4.5 0.05 5.20621e-08 -5.20641e-08 0.000392687 
17 1 4.62629e-14 -1.11595e-13 -1.03712e-13 -1 -5 -5 0.05 -5.20667e-08 1.15041e-11 0.000392669 
20 1 4.62779e-14 -4.62714e-14 9.245e-14 -1 -4.5 -4.5 0.05 5.20621e-08 5.20641e-08 0.000392687 
18 1 1.11655e-13 -4.6271e-14 -1.03736e-13 -0.5 -4.5 -5 0.05 -5.20667e-08 -1.15041e-11 0.000392669 
19 1 -2.15463e-13 2.15473e-13 9.24767e-14 -0.5 -5 -4.5 0.05 5.20621e-08 -5.20641e-08 0.000392687 
21 1 -1.11599e-13 1.33588e-17 -1.03673e-13 -5 -4 -5 0.05 4.60072e-12 -5.20627e-08 0.000392669 
23 1 -4.62673e-14 -2.37118e-17 9.23513e-14 -4.5 -4 -4.5 0.05 5.20595e-08 5.20526e-08 0.000392652 
25 1 1.14884e-19 5.89695e-18 -1.69043e-13 -4 -4 -5 0.05 -5.20618e-08 -5.20572e-08 0.00039264 
27 1 1.26645e-17 -1.62403e-17 9.24329e-14 -3.5 -4 -4.5 0.05 5.20657e-08 5.20654e-08 0.00039264 
29 1 6.14388e-18 5.884e-18 -1.69082e-13 -3 -4 -5 0.05 -5.20657e-08 -5.20641e-08 0.00039264 
31 1 1.12163e-17 -1.62418e-17 9.24329e-14 -2.5 -4 -4.5 0.05 5.20657e-08 5.20654e-08 0.00039264 
33 1 6.14357e-18 5.884e-18 -1.69082e-13 -2 -4 -5 0.05 -5.20657e-08 -5.20641e-08 0.00039264 
35 1 7.12935e-18 -1.62385e-17 9.24329e-14 -1.5 -4 -4.5 0.05 5.20657e-08 5.20654e-08 0.00039264 
37 1 4.62617e-14 -5.67769e-18 -1.691e-13 -1 -4 -5 0.05 -5.20657e-08 -5.20641e-08 0.00039264 
39 1 -8.46415e-14 1.60534e-17 9.25165e-14 -0.5 -4 -4.5 0.05 5.20703e-08 5.207e-08 0.000392675 
22 1 -4.62876e-14 9.62553e-18 -1.69023e-13 -4.5 -3.5 -5 0.05 -6.90281e-12 -5.20542e-08 0.000392635 
24 1 8.46465e-14 3.00224e-17 9.24471e-14 -5 -3.5 -4.5 0.05 -5.20595e-08 5.20621e-08 0.000392687 
28 1 -4.67001e-18 1.67541e-17 9.24329e-14 -4 -3.5 -4.5 0.05 5.20608e-08 5.20657e-08 0.00039264 
26 1 5.53318e-18 9.62355e-18 -1.69103e-13 -3.5 -3.5 -5 0.05 -5.20625e-08 -5.20625e-08 0.00039264 
32 1 1.12132e-17 1.67556e-17 9.24741e-14 -3 -3.5 -4.5 0.05 5.20657e-08 5.20657e-08 0.00039264 
30 1 6.1334e-18 9.62436e-18 -1.69109e-13 -2.5 -3.5 -5 0.05 -5.20657e-08 -5.20625e-08 0.00039264 
36 1 1.12149e-17 1.67556e-17 9.24741e-14 -2 -3.5 -4.5 0.05 5.20657e-08 5.20657e-08 0.00039264 
34 1 2.04475e-18 9.62538e-18 -1.69109e-13 -1.5 -3.5 -5 0.05 -5.20657e-08 -5.20625e-08 0.00039264 
40 1 4.62899e-14 1.67436e-17 9.25153e-14 -1 -3.5 -4.5 0.05 5.20657e-08 5.20657e-08 0.00039264 
38 1 1.11667e-13 5.5212e-18 -1.038e-13 -0.5 -3.5 -5 0.05 -5.20703e-08 -5.20717e-08 0.000392675 
41 1 -1.11589e-13 6.13218e-18 -1.03694e-13 -5 -3 -5 0.05 1.15025e-11 -5.20667e-08 0.000392669 
43 1 -4.62557e-14 1.12159e-17 9.23924e-14 -4.5 -3 -4.5 0.05 5.20595e-08 5.20529e-08 0.000392652 
45 1 1.06991e-19 6.14623e-18 -1.69076e-13 -4 -3 -5 0.05 -5.20618e-08 -5.20588e-08 0.00039264 
47 1 1.2663e-17 1.12152e-17 9.24741e-14 -3.5 -3 -4.5 0.05 5.20657e-08 5.20657e-08 0.00039264 
49 1 6.1345e-18 6.13383e-18 -1.69115e-13 -3 -3 -5 0.05 -5.20657e-08 -5.20657e-08 0.00039264 
51 1 1.12144e-17 1.12129e-17 9.24741e-14 -2.5 -3 -4.5 0.05 5.20657e-08 5.20657e-08 0.00039264 
53 1 6.13456e-18 6.13383e-18 -1.69115e-13 -2 -3 -5 0.05 -5.20657e-08 -5.20657e-08 0.00039264 
55 1 7.12585e-18 1.12152e-17 9.24741e-14 -1.5 -3 -4.5 0.05 5.20657e-08 5.20657e-08 0.00039264 
57 1 4.62502e-14 6.13546e-18 -1.69133e-13 -1 -3 -5 0.05 -5.20657e-08 -5.20657e-08 0.00039264 
59 1 -8.46571e-14 2.85596e-17 9.25576e-14 -0.5 -3 -4.5 0.05 5.20703e-08 5.20749e-08 0.000392675 
42 1 -4.62876e-14 6.13615e-18 -1.69029e-13 -4.5 -2.5 -5 0.05 -6.9026e-12 -5.20575e-08 0.000392635 
44 1 8.46465e-14 2.85742e-17 9.24471e-14 -5 -2.5 -4.5 0.05 -5.20595e-08 5.20621e-08 0.000392687 
48 1 -4.6708e-18 1.12124e-17 9.24329e-14 -4 -2.5 -4.5 0.05 5.20608e-08 5.20657e-08 0.00039264 
46 1 5.53399e-18 6.13328e-18 -1.69109e-13 -3.5 -2.5 -5 0.05 -5.20625e-08 -5.20657e-08 0.00039264 
52 1 1.12132e-17 1.12143e-17 9.24741e-14 -3 -2.5 -4.5 0.05 5.20657e-08 5.20657e-08 0.00039264 
50 1 6.13422e-18 6.13409e-18 -1.69115e-13 -2.5 -2.5 -5 0.05 -5.20657e-08 -5.20657e-08 0.00039264 
56 1 1.12149e-17 1.12143e-17 9.24741e-14 -2 -2.5 -4.5 0.05 5.20657e-08 5.20657e-08 0.00039264 
54 1 2.04671e-18 6.13409e-18 -1.69115e-13 -1.5 -2.5 -5 0.05 -5.20657e-08 -5.20657e-08 0.00039264 
60 1 4.62899e-14 1.12037e-17 9.25153e-14 -1 -2.5 -4.5 0.05 5.20657e-08 5.20657e-08 0.00039264 
58 1 1.11667e-13 6.11978e-18 -1.03806e-13 -0.5 -2.5 -5 0.05 -5.20703e-08 -5.20749e-08 0.000392675 
61 1 -1.11589e-13 6.13265e-18 -1.03694e-13 -5 -2 -5 0.05 1.15027e-11 -5.20667e-08 0.000392669 
63 1 -4.62557e-14 1.12169e-17 9.23924e-14 -4.5 -2 -4.5 0.05 5.20595e-08 5.20529e-08 0.000392652 
65 1 1.0699e-19 6.14659e-18 -1.69076e-13 -4 -2 -5 0.05 -5.20618e-08 -5.20588e-08 0.00039264 
67 1 1.2663e-17 1.12168e-17 9.24741e-14 -3.5 -2 -4.5 0.05 5.20657e-08 5.20657e-08 0.00039264 
69 1 6.1345e-18 6.1342e-18 -1.69115e-13 -3 -2 -5 0.05 -5.20657e-08 -5.20657e-08 0.00039264 
71 1 1.12144e-17 1.12145e-17 9.24741e-14 -2.5 -2 -4.5 0.05 5.20657e-08 5.20657e-08 0.00039264 
73 1 6.13456e-18 6.1342e-18 -1.69115e-13 -2 -2 -5 0.05 -5.20657e-08 -5.20657e-08 0.00039264 
75 1 7.12585e-18 1.12168e-17 9.24741e-14 -1.5 -2 -4.5 0.05 5.20657e-08 5.20657e-08 0.00039264 
77 1 4.62502e-14 6.13511e-18 -1.69133e-13 -1 -2 -5 0.05 -5.20657e-08 -5.20657e-08 0.00039264 
79 1 -8.46571e-14 2.85614e-17 9.25576e-14 -0.5 -2 -4.5 0.05 5.20703e-08 5.20749e-08 0.000392675 
62 1 -4.62876e-14 6.13626e-18 -1.69029e-13 -4.5 -1.5 -5 0.05 -6.9026e-12 -5.20575e-08 0.000392635 
64 1 8.46465e-14 2.85743e-17 9.24471e-14 -5 -1.5 -4.5 0.05 -5.20595e-08 5.20621e-08 0.000392687 
68 1 -4.6708e-18 1.12126e-17 9.24329e-14 -4 -1.5 -4.5 0.05 5.20608e-08 5.20657e-08 0.00039264 
66 1 5.53399e-18 6.13339e-18 -1.69109e-13 -3.5 -1.5 -5 0.05 -5.20625e-08 -5.20657e-08 0.00039264 
72 1 1.12132e-17 1.12145e-17 9.24741e-14 -3 -1.5 -4.5 0.05 5.20657e-08 5.20657e-08 0.00039264 
70 1 6.13422e-18 6.1342e-18 -1.69115e-13 -2.5 -1.5 -5 0.05 -5.20657e-08 -5.20657e-08 0.00039264 
76 1 1.12149e-17 1.12145e-17 9.24741e-14 -2 -1.5 -4.5 0.05 5.20657e-08 5.20657e-08 0.00039264 
74 1 2.04671e-18 6.1342e-18 -1.69115e-13 -1.5 -1.5 -5 0.05 -5.20657e-08 -5.20657e-08 0.00039264 
80 1 4.62899e-14 1.12039e-17 9.25153e-14 -1 -1.5 -4.5 0.05 5.20657e-08 5.20657e-08 0.00039264 
78 1 1.11667e-13 6.11977e-18 -1.03806e-13 -0.5 -1.5 -5 0.05 -5.20703e-08 -5.20749e-08 0.000392675 
81 1 -1.11589e-13 4.62629e-14 -1.03706e-13 -5 -1 -5 0.05 1.15027e-11 -5.20667e-08 0.000392669 
83 1 -4.62557e-14 4.62813e-14 9.24336e-14 -4.5 -1 -4.5 0.05 5.20595e-08 5.20529e-08 0.000392652 
85 1 1.08616e-19 4.6256e-14 -1.69088e-13 -4 -1 -5 0.05 -5.20618e-08 -5.20588e-08 0.00039264 
87 1 1.26616e-17 4.62784e-14 9.25153e-14 -3.5 -1 -4.5 0.05 5.20657e-08 5.20657e-08 0.00039264 
89 1 6.13613e-18 4.62559e-14 -1.69127e-13 -3 -1 -5 0.05 -5.20657e-08 -5.20657e-08 0.00039264 
91 1 1.1213e-17 4.62784e-14 9.25153e-14 -2.5 -1 -4.5 0.05 5.20657e-08 5.20657e-08 0.00039264 
93 1 6.13618e-18 4.62559e-14 -1.69127e-13 -2 -1 -5 0.05 -5.20657e-08 -5.20657e-08 0.00039264 
95 1 7.12441e-18 4.62784e-14 9.25153e-14 -1.5 -1 -4.5 0.05 5.20657e-08 5.20657e-08 0.00039264 
97 1 4.62502e-14 4.62559e-14 -1.69145e-13 -1 -1 -5 0.05 -5.20657e-08 -5.20657e-08 0.00039264 
99 1 -8.46571e-14 4.63039e-14 9.25988e-14 -0.5 -1 -4.5 0.05 5.20703e-08 5.20749e-08 0.000392675 
82 1 -4.62802e-14 1.11659e-13 -1.03724e-13 -4.5 -0.5 -5 0.05 -6.9026e-12 -5.20575e-08 0.000392635 
84 1 2.15454e-13 -2.15475e-13 9.24767e-14 -5 -0.5 -4.5 0.05 -5.20595e-08 5.20621e-08 0.000392687 
88 1 8.57261e-18 -8.46456e-14 9.25001e-14 -4 -0.5 -4.5 0.05 5.20608e-08 5.20657e-08 0.00039264 
86 1 5.51746e-18 1.11657e-13 -1.03787e-13 -3.5 -0.5 -5 0.05 -5.20625e-08 -5.20657e-08 0.00039264 
92 1 2.85473e-17 -8.46496e-14 9.25413e-14 -3 -0.5 -4.5 0.05 5.20657e-08 5.20657e-08 0.00039264 
90 1 6.11663e-18 1.11657e-13 -1.03793e-13 -2.5 -0.5 -5 0.05 -5.20657e-08 -5.20657e-08 0.00039264 
96 1 2.85488e-17 -8.46496e-14 9.25413e-14 -2 -0.5 -4.5 0.05 5.20657e-08 5.20657e-08 0.00039264 
94 1 2.0281e-18 1.11657e-13 -1.03793e-13 -1.5 -0.5 -5 0.05 -5.20657e-08 -5.20657e-08 0.00039264 
100 1 4.63188e-14 -8.46381e-14 9.25825e-14 -1 -0.5 -4.5 0.05 5.20657e-08 5.20657e-08 0.00039264 
98 1 -1.9159e-14 -1.91723e-14 -3.84037e-14 -0.5 -0.5 -5 0.05 -5.20703e-08 -5.20749e-08 0.000392675 
101 1 2.15489e-13 2.15454e-13 -5.06341e-18 -5 -5 -4 0.05 -5.20627e-08 -5.20581e-08 0.000392758 
102 1 -4.62515e-14 -4.63168e-14 7.51768e-17 -4.5 -4.5 -4 0.05 -1.67788e-11 -7.57552e-12 0.000392758 
105 1 -8.02301e-17 8.45584e-14 -1.19076e-18 -4 -5 -4 0.05 4.60404e-12 -5.20503e-08 0.000392729 
106 1 -2.20434e-17 -4.62792e-14 2.48397e-17 -3.5 -4.5 -4 0.05 -9.87675e-12 -5.27415e-12 0.000392746 
109 1 -4.0828e-17 8.45625e-14 4.94587e-18 -3 -5 -4 0.05 1.62744e-12 -5.20503e-08 0.000392729 
110 1 -2.34902e-17 -4.62792e-14 2.4836e-17 -2.5 -4.5 -4 0.05 -9.87642e-12 -5.27448e-12 0.000392746 
113 1 -4.08294e-17 8.45625e-14 4.94552e-18 -2 -5 -4 0.05 1.62745e-12 -5.20503e-08 0.000392729 
114 1 -2.14489e-17 -4.62792e-14 1.87087e-17 -1.5 -4.5 -4 0.05 -9.87642e-12 -5.27448e-12 0.000392746 
117 1 4.6253e-14 8.45682e-14 1.65136e-17 -1 -5 -4 0.05 1.62745e-12 -5.20503e-08 0.000392729 
118 1 -8.46365e-14 -4.62717e-14 1.65081e-17 -0.5 -4.5 -4 0.05 5.20512e-08 -5.27421e-12 0.000392729 
121 1 8.45353e-14 -3.39512e-17 -1.17393e-18 -5 -4 -4 0.05 -5.20457e-08 3.1168e-15 0.000392729 
125 1 -2.40879e-17 -3.56528e-17 -3.77842e-17 -4 -4 -4 0.05 -4.60108e-12 -2.43353e-16 0.000392699 
129 1 -2.34825e-17 -3.56545e-17 -3.16581e-17 -3 -4 -4 0.05 -2.97589e-12 1.16679e-16 0.000392699 
133 1 -2.34828e-17 -3.56545e-17 -3.16576e-17 -2 -4 -4 0.05 -2.97574e-12 1.1661e-16 0.000392699 
137 1 4.62923e-14 -4.72236e-17 -3.74443e-17 -1 -4 -4 0.05 -5.27653e-12 -6.90228e-12 0.000392699 
122 1 -4.62751e-14 -1.79431e-17 2.48318e-17 -4.5 -3.5 -4 0.05 -5.27407e-12 -9.87629e-12 0.000392711 
126 1 -2.20397e-17 -1.79482e-17 -2.5523e-17 -3.5 -3.5 -4 0.05 -2.97507e-12 -2.97551e-12 0.000392699 
130 1 -2.34836e-17 -1.79482e-17 -2.55257e-17 -2.5 -3.5 -4 0.05 -2.97509e-12 -2.97551e-12 0.000392699 
134 1 -2.55352e-17 -1.79448e-17 -3.16547e-17 -1.5 -3.5 -4 0.05 -2.97387e-12 -2.97551e-12 0.000392699 
138 1 -8.46023e-14 -3.93954e-17 -5.11996e-17 -0.5 -3.5 -4 0.05 5.20503e-08 1.62688e-12 0.000392716 
141 1 8.45509e-14 -4.08331e-17 4.94722e-18 -5 -3 -4 0.05 -5.20457e-08 1.62811e-12 0.000392729 
145 1 -2.40879e-17 -2.3485e-17 -3.16529e-17 -4 -3 -4 0.05 -4.60118e-12 -2.97515e-12 0.000392699 
149 1 -2.34836e-17 -2.34839e-17 -2.55267e-17 -3 -3 -4 0.05 -2.97546e-12 -2.97531e-12 0.000392699 
153 1 -2.34835e-17 -2.34839e-17 -2.55263e-17 -2 -3 -4 0.05 -2.9753e-12 -2.97531e-12 0.000392699 
157 1 4.62807e-14 -2.34862e-17 -3.13066e-17 -1 -3 -4 0.05 -5.2765e-12 -9.87771e-12 0.000392699 
142 1 -4.62751e-14 -2.34779e-17 2.48317e-17 -4.5 -2.5 -4 0.05 -5.27396e-12 -9.87643e-12 0.000392711 
146 1 -2.20397e-17 -2.34837e-17 -2.55242e-17 -3.5 -2.5 -4 0.05 -2.97529e-12 -2.9753e-12 0.000392699 
150 1 -2.34836e-17 -2.34837e-17 -2.55269e-17 -2.5 -2.5 -4 0.05 -2.9753e-12 -2.9753e-12 0.000392699 
154 1 -2.5534e-17 -2.34814e-17 -3.16558e-17 -1.5 -2.5 -4 0.05 -2.97408e-12 -2.9753e-12 0.000392699 
158 1 -8.46023e-14 -4.08407e-17 -5.12038e-17 -0.5 -2.5 -4 0.05 5.20503e-08 1.62721e-12 0.000392716 
161 1 8.45509e-14 -4.08324e-17 4.94741e-18 -5 -2 -4 0.05 -5.20457e-08 1.62826e-12 0.000392729 
165 1 -2.40879e-17 -2.34847e-17 -3.16532e-17 -4 -2 -4 0.05 -4.60118e-12 -2.97514e-12 0.000392699 
169 1 -2.34836e-17 -2.34835e-17 -2.55271e-17 -3 -2 -4 0.05 -2.97546e-12 -2.9753e-12 0.000392699 
173 1 -2.34835e-17 -2.34835e-17 -2.55266e-17 -2 -2 -4 0.05 -2.9753e-12 -2.9753e-12 0.000392699 
177 1 4.62807e-14 -2.34865e-17 -3.1307e-17 -1 -2 -4 0.05 -5.2765e-12 -9.8777e-12 0.000392699 
162 1 -4.62751e-14 -2.14357e-17 1.87023e-17 -4.5 -1.5 -4 0.05 -5.27396e-12 -9.87643e-12 0.000392711 
166 1 -2.20397e-17 -2.14417e-17 -3.1653e-17 -3.5 -1.5 -4 0.05 -2.97529e-12 -2.9753e-12 0.000392699 
170 1 -2.34836e-17 -2.14417e-17 -3.16557e-17 -2.5 -1.5 -4 0.05 -2.9753e-12 -2.9753e-12 0.000392699 
174 1 -2.5534e-17 -2.14394e-17 -3.77846e-17 -1.5 -1.5 -4 0.05 -2.97408e-12 -2.9753e-12 0.000392699 
178 1 -8.46023e-14 -3.87986e-17 -5.73334e-17 -0.5 -1.5 -4 0.05 5.20503e-08 1.62721e-12 0.000392716 
181 1 8.45567e-14 4.6253e-14 1.65146e-17 -5 -1 -4 0.05 -5.20457e-08 1.62826e-12 0.000392729 
185 1 -2.40883e-17 4.62692e-14 -3.74346e-17 -4 -1 -4 0.05 -4.60118e-12 -2.97514e-12 0.000392699 
189 1 -2.34836e-17 4.62692e-14 -3.13074e-17 -3 -1 -4 0.05 -2.97546e-12 -2.9753e-12 0.000392699 
193 1 -2.34835e-17 4.62692e-14 -3.13069e-17 -2 -1 -4 0.05 -2.9753e-12 -2.9753e-12 0.000392699 
197 1 4.62807e-14 4.62692e-14 -3.70905e-17 -1 -1 -4 0.05 -5.2765e-12 -9.8777e-12 0.000392699 
182 1 -4.62982e-14 -8.45985e-14 1.65079e-17 -4.5 -0.5 -4 0.05 -6.72512e-13 5.20466e-08 0.000392694 
186 1 -3.9385e-17 -8.45949e-14 -5.11953e-17 -3.5 -0.5 -4 0.05 1.627e-12 5.20503e-08 0.000392682 
190 1 -4.08291e-17 -8.45949e-14 -5.11985e-17 -2.5 -0.5 -4 0.05 1.62699e-12 5.20503e-08 0.000392682 
194 1 -4.28793e-17 -8.45949e-14 -5.73302e-17 -1.5 -0.5 -4 0.05 1.62821e-12 5.20503e-08 0.000392682 
198 1 -2.15446e-13 -2.15476e-13 -1.17358e-16 -0.5 -0.5 -4 0.05 5.20549e-08 5.20595e-08 0.000392699 
103 1 -4.63015e-14 8.46346e-14 3.33591e-17 -4.5 -5 -3.5 0.05 2.20185e-15 -5.20621e-08 0.000392776 
104 1 8.4623e-14 -4.62742e-14 3.33336e-17 -5 -4.5 -3.5 0.05 -5.20552e-08 -2.29876e-12 0.000392741 
108 1 1.30247e-17 -4.62615e-14 2.51704e-17 -4 -4.5 -3.5 0.05 -1.01585e-11 -2.29797e-12 0.000392746 
107 1 1.16657e-17 8.4612e-14 -1.35487e-18 -3.5 -5 -3.5 0.05 -1.62593e-12 -5.20588e-08 0.000392729 
112 1 6.13685e-18 -4.62731e-14 3.12975e-17 -3 -4.5 -3.5 0.05 -8.53054e-12 -2.29845e-12 0.000392746 
111 1 6.13109e-18 8.4612e-14 -1.35155e-18 -2.5 -5 -3.5 0.05 -1.6261e-12 -5.20588e-08 0.000392729 
116 1 6.13839e-18 -4.6273e-14 3.12971e-17 -2 -4.5 -3.5 0.05 -8.53039e-12 -2.29845e-12 0.000392746 
115 1 8.17727e-18 8.4612e-14 -7.48365e-18 -1.5 -5 -3.5 0.05 -1.6261e-12 -5.20588e-08 0.000392729 
120 1 4.62636e-14 -4.62846e-14 4.86442e-17 -1 -4.5 -3.5 0.05 -3.9296e-12 -2.29916e-12 0.000392746 
119 1 -2.15461e-13 2.15462e-13 -5.13548e-17 -0.5 -5 -3.5 0.05 5.20627e-08 -5.20611e-08 0.000392711 
123 1 -4.62805e-14 -1.3505e-17 2.5153e-17 -4.5 -4 -3.5 0.05 -2.29763e-12 -5.55364e-12 0.000392711 
127 1 7.57985e-18 -6.02602e-18 7.81916e-18 -3.5 -4 -3.5 0.05 -1.62737e-12 1.34654e-12 0.000392699 
131 1 6.13479e-18 -6.02523e-18 7.8187e-18 -2.5 -4 -3.5 0.05 -1.62699e-12 1.34654e-12 0.000392699 
135 1 4.09608e-18 -6.02523e-18 1.68749e-18 -1.5 -4 -3.5 0.05 -1.62729e-12 1.34654e-12 0.000392699 
139 1 -8.4578e-14 8.93224e-18 -7.46433e-18 -0.5 -4 -3.5 0.05 5.20526e-08 -3.25614e-12 0.000392716 
124 1 8.46004e-14 7.57904e-18 -1.34594e-18 -5 -3.5 -3.5 0.05 -5.20542e-08 -1.62668e-12 0.000392729 
128 1 5.54342e-18 1.16723e-17 7.81818e-18 -4 -3.5 -3.5 0.05 -3.25538e-12 -1.62736e-12 0.000392699 
132 1 6.13479e-18 1.16718e-17 1.39518e-17 -3 -3.5 -3.5 0.05 -1.62692e-12 -1.62758e-12 0.000392699 
136 1 6.13574e-18 1.16718e-17 1.39517e-17 -2 -3.5 -3.5 0.05 -1.62677e-12 -1.62758e-12 0.000392699 
140 1 4.62757e-14 1.16723e-17 3.12986e-17 -1 -3.5 -3.5 0.05 6.72047e-13 -8.52987e-12 0.000392699 
143 1 -4.6269e-14 6.1361e-18 3.12901e-17 -4.5 -3 -3.5 0.05 -2.29858e-12 -8.52914e-12 0.000392711 
147 1 7.58027e-18 6.13448e-18 1.39538e-17 -3.5 -3 -3.5 0.05 -1.62737e-12 -1.62699e-12 0.000392699 
151 1 6.13479e-18 6.13448e-18 1.39534e-17 -2.5 -3 -3.5 0.05 -1.62699e-12 -1.62699e-12 0.000392699 
155 1 4.09345e-18 6.13448e-18 7.82063e-18 -1.5 -3 -3.5 0.05 -1.62607e-12 -1.62699e-12 0.000392699 
159 1 -8.45937e-14 6.13207e-18 -1.33732e-18 -0.5 -3 -3.5 0.05 5.20526e-08 -1.62682e-12 0.000392716 
144 1 8.46004e-14 6.13122e-18 -1.34848e-18 -5 -2.5 -3.5 0.05 -5.20542e-08 -1.6261e-12 0.000392729 
148 1 5.54263e-18 6.13467e-18 7.81924e-18 -4 -2.5 -3.5 0.05 -3.25559e-12 -1.62677e-12 0.000392699 
152 1 6.13479e-18 6.13467e-18 1.39528e-17 -3 -2.5 -3.5 0.05 -1.62714e-12 -1.62699e-12 0.000392699 
156 1 6.13574e-18 6.13467e-18 1.39528e-17 -2 -2.5 -3.5 0.05 -1.62698e-12 -1.62699e-12 0.000392699 
160 1 4.62757e-14 6.13701e-18 3.13004e-17 -1 -2.5 -3.5 0.05 6.71437e-13 -8.52991e-12 0.000392699 
163 1 -4.6269e-14 6.13677e-18 3.12892e-17 -4.5 -2 -3.5 0.05 -2.29858e-12 -8.52913e-12 0.000392711 
167 1 7.58027e-18 6.13574e-18 1.39529e-17 -3.5 -2 -3.5 0.05 -1.62737e-12 -1.62699e-12 0.000392699 
171 1 6.13479e-18 6.13574e-18 1.39525e-17 -2.5 -2 -3.5 0.05 -1.62699e-12 -1.62699e-12 0.000392699 
175 1 4.09345e-18 6.13574e-18 7.81974e-18 -1.5 -2 -3.5 0.05 -1.62607e-12 -1.62698e-12 0.000392699 
179 1 -8.45937e-14 6.13349e-18 -1.33767e-18 -0.5 -2 -3.5 0.05 5.20526e-08 -1.62666e-12 0.000392716 
164 1 8.46004e-14 8.17727e-18 -7.48058e-18 -5 -1.5 -3.5 0.05 -5.20542e-08 -1.6261e-12 0.000392729 
168 1 5.54263e-18 8.18312e-18 1.68727e-18 -4 -1.5 -3.5 0.05 -3.25559e-12 -1.62677e-12 0.000392699 
172 1 6.13479e-18 8.18312e-18 7.82086e-18 -3 -1.5 -3.5 0.05 -1.62714e-12 -1.62699e-12 0.000392699 
176 1 6.13574e-18 8.18312e-18 7.82078e-18 -2 -1.5 -3.5 0.05 -1.62698e-12 -1.62699e-12 0.000392699 
180 1 4.62757e-14 8.18547e-18 2.51684e-17 -1 -1.5 -3.5 0.05 6.71437e-13 -8.52991e-12 0.000392699 
183 1 -4.6269e-14 4.6267e-14 4.86347e-17 -4.5 -1 -3.5 0.05 -2.29898e-12 -3.92875e-12 0.000392711 
187 1 7.58181e-18 4.62641e-14 3.13004e-17 -3.5 -1 -3.5 0.05 -1.62777e-12 2.97296e-12 0.000392699 
191 1 6.13633e-18 4.62641e-14 3.13e-17 -2.5 -1 -3.5 0.05 -1.62739e-12 2.97296e-12 0.000392699 
195 1 4.09498e-18 4.62641e-14 2.51672e-17 -1.5 -1 -3.5 0.05 -1.62648e-12 2.97296e-12 0.000392699 
199 1 -8.45994e-14 4.62624e-14 3.33601e-17 -0.5 -1 -3.5 0.05 5.20526e-08 2.97369e-12 0.000392716 
184 1 2.15443e-13 -2.15472e-13 -5.13467e-17 -5 -0.5 -3.5 0.05 -5.20565e-08 5.20627e-08 0.000392711 
188 1 1.45286e-18 -8.45821e-14 -7.47619e-18 -4 -0.5 -3.5 0.05 -3.25588e-12 5.20526e-08 0.000392682 
192 1 6.13104e-18 -8.45862e-14 -1.34107e-18 -3 -0.5 -3.5 0.05 -1.62699e-12 5.20526e-08 0.000392682 
196 1 6.13186e-18 -8.45862e-14 -1.34115e-18 -2 -0.5 -3.5 0.05 -1.62684e-12 5.20526e-08 0.000392682 
200 1 4.62774e-14 -8.45804e-14 3.33582e-17 -1 -0.5 -3.5 0.05 6.71581e-13 5.20457e-08 0.000392682 
201 1 2.1553e-13 2.15495e-13 -5.71311e-17 -5 -5 -3 0.05 -5.2069e-08 -5.20644e-08 0.000392758 
202 1 -4.62515e-14 -4.63168e-14 3.46879e-17 -4.5 -4.5 -3 0.05 -1.21778e-11 -2.97256e-12 0.000392758 
205 1 -3.93926e-17 8.46079e-14 -1.73515e-17 -4 -5 -3 0.05 2.97579e-12 -5.20588e-08 0.000392729 
206 1 1.44852e-18 -4.62792e-14 1.73534e-17 -3.5 -4.5 -3 0.05 -6.9034e-12 -6.71127e-13 0.000392746 
209 1 2.62287e-21 8.4612e-14 -1.12144e-17 -3 -5 -3 0.05 3.34703e-16 -5.20588e-08 0.000392729 
210 1 1.46894e-22 -4.62792e-14 1.73519e-17 -2.5 -4.5 -3 0.05 -6.90268e-12 -6.71449e-13 0.000392746 
213 1 2.17977e-21 8.4612e-14 -1.12153e-17 -2 -5 -3 0.05 3.43392e-16 -5.20588e-08 0.000392729 
214 1 2.04182e-18 -4.62792e-14 1.12226e-17 -1.5 -4.5 -3 0.05 -6.90146e-12 -6.71449e-13 0.000392746 
217 1 4.62592e-14 8.46177e-14 2.34862e-17 -1 -5 -3 0.05 4.60212e-12 -5.20588e-08 0.000392729 
218 1 -8.46279e-14 -4.62543e-14 2.34867e-17 -0.5 -4.5 -3 0.05 5.20535e-08 -5.27447e-12 0.000392729 
221 1 8.45847e-14 6.88778e-18 -1.7338e-17 -5 -4 -3 0.05 -5.20542e-08 -1.62613e-12 0.000392729 
225 1 -5.97241e-19 -1.21613e-17 -1.22642e-17 -4 -4 -3 0.05 -1.62702e-12 2.97428e-12 0.000392699 
229 1 1.45941e-22 -1.21641e-17 -6.13213e-18 -3 -4 -3 0.05 8.43445e-17 2.97459e-12 0.000392699 
233 1 7.34911e-22 -1.21641e-17 -6.13221e-18 -2 -4 -3 0.05 2.36731e-16 2.97459e-12 0.000392699 
237 1 4.62811e-14 -2.37321e-17 1.1202e-17 -1 -4 -3 0.05 2.29954e-12 -3.9276e-12 0.000392699 
222 1 -4.62751e-14 5.53647e-18 1.73453e-17 -4.5 -3.5 -3 0.05 -6.71975e-13 -6.9021e-12 0.000392711 
226 1 1.44563e-18 5.53719e-18 2.64585e-22 -3.5 -3.5 -3 0.05 7.19547e-17 -3.59549e-16 0.000392699 
230 1 1.46464e-22 5.53719e-18 -1.99191e-22 -2.5 -3.5 -3 0.05 4.52526e-16 -3.59529e-16 0.000392699 
234 1 -2.04835e-18 5.53821e-18 -6.13173e-18 -1.5 -3.5 -3 0.05 2.5874e-15 -3.59294e-16 0.000392699 
238 1 -8.45937e-14 1.44825e-18 -1.12114e-17 -0.5 -3.5 -3 0.05 5.20526e-08 -1.68817e-16 0.000392716 
241 1 8.46004e-14 6.35625e-22 -1.12119e-17 -5 -3 -3 0.05 -5.20542e-08 1.90849e-16 0.000392729 
245 1 -5.96183e-19 -1.62512e-22 -6.13105e-18 -4 -3 -3 0.05 -1.62755e-12 4.44064e-16 0.000392699 
249 1 1.46449e-22 -1.62534e-22 1.02989e-21 -3 -3 -3 0.05 8.42351e-17 2.2808e-16 0.000392699 
253 1 1.09632e-21 -1.62625e-22 9.5092e-22 -2 -3 -3 0.05 2.3681e-16 2.27854e-16 0.000392699 
257 1 4.62696e-14 5.60656e-22 1.73454e-17 -1 -3 -3 0.05 2.29935e-12 -6.90186e-12 0.000392699 
242 1 -4.62751e-14 1.88972e-23 1.73473e-17 -4.5 -2.5 -3 0.05 -6.71869e-13 -6.90185e-12 0.000392711 
246 1 1.44563e-18 1.87882e-23 1.33425e-21 -3.5 -2.5 -3 0.05 -1.43719e-16 2.36715e-16 0.000392699 
250 1 1.46432e-22 1.87883e-23 8.70474e-22 -2.5 -2.5 -3 0.05 2.36778e-16 2.3681e-16 0.000392699 
254 1 -2.0472e-18 1.8413e-23 -6.13066e-18 -1.5 -2.5 -3 0.05 2.37146e-15 2.37114e-16 0.000392699 
258 1 -8.45937e-14 1.23105e-21 -1.12134e-17 -0.5 -2.5 -3 0.05 5.20526e-08 5.59153e-16 0.000392716 
261 1 8.46004e-14 2.18009e-21 -1.12122e-17 -5 -2 -3 0.05 -5.20542e-08 3.43334e-16 0.000392729 
265 1 -5.96183e-19 1.09589e-21 -6.13194e-18 -4 -2 -3 0.05 -1.62755e-12 4.52821e-16 0.000392699 
269 1 1.46449e-22 1.09591e-21 1.37243e-22 -3 -2 -3 0.05 8.42351e-17 2.36761e-16 0.000392699 
273 1 1.09621e-21 1.09591e-21 5.82679e-23 -2 -2 -3 0.05 2.3681e-16 2.36536e-16 0.000392699 
277 1 4.62696e-14 1.09628e-21 1.73446e-17 -1 -2 -3 0.05 2.29935e-12 -6.90185e-12 0.000392699 
262 1 -4.62751e-14 2.04266e-18 1.1216e-17 -4.5 -1.5 -3 0.05 -6.71869e-13 -6.90063e-12 0.000392711 
266 1 1.44563e-18 2.04247e-18 -6.12943e-18 -3.5 -1.5 -3 0.05 -1.43676e-16 1.45655e-15 0.000392699 
270 1 1.46296e-22 2.04247e-18 -6.1299e-18 -2.5 -1.5 -3 0.05 2.3682e-16 1.45664e-15 0.000392699 
274 1 -2.0472e-18 2.04247e-18 -1.22614e-17 -1.5 -1.5 -3 0.05 2.3715e-15 1.45695e-15 0.000392699 
278 1 -8.45937e-14 2.04109e-18 -1.73437e-17 -0.5 -1.5 -3 0.05 5.20526e-08 1.77913e-15 0.000392716 
281 1 8.46062e-14 4.62592e-14 2.34885e-17 -5 -1 -3 0.05 -5.20542e-08 4.60212e-12 0.000392729 
285 1 -5.96544e-19 4.6258e-14 1.1212e-17 -4 -1 -3 0.05 -1.62755e-12 4.60109e-12 0.000392699 
289 1 1.46921e-22 4.6258e-14 1.73452e-17 -3 -1 -3 0.05 8.41864e-17 4.60087e-12 0.000392699 
293 1 1.09666e-21 4.6258e-14 1.73451e-17 -2 -1 -3 0.05 2.36761e-16 4.60087e-12 0.000392699 
297 1 4.62696e-14 4.6258e-14 3.46849e-17 -1 -1 -3 0.05 2.29935e-12 -2.30121e-12 0.000392699 
282 1 -4.62809e-14 -8.45898e-14 2.34851e-17 -4.5 -0.5 -3 0.05 -6.72461e-13 5.20489e-08 0.000392694 
286 1 1.44701e-18 -8.45862e-14 -1.12132e-17 -3.5 -0.5 -3 0.05 -4.31374e-16 5.20526e-08 0.000392682 
290 1 1.23036e-21 -8.45862e-14 -1.12142e-17 -2.5 -0.5 -3 0.05 -5.08131e-17 5.20526e-08 0.000392682 
294 1 -2.04858e-18 -8.45862e-14 -1.73473e-17 -1.5 -0.5 -3 0.05 2.08408e-15 5.20526e-08 0.000392682 
298 1 -2.15428e-13 -2.15459e-13 -5.71277e-17 -0.5 -0.5 -3 0.05 5.20549e-08 5.20595e-08 0.000392699 
203 1 -4.63076e-14 8.46346e-14 2.34978e-17 -4.5 -5 -2.5 0.05 1.62905e-12 -5.20621e-08 0.000392776 
204 1 8.4623e-14 -4.62804e-14 2.34745e-17 -5 -4.5 -2.5 0.05 -5.20552e-08 -6.72342e-13 0.000392741 
208 1 6.88285e-18 -4.62676e-14 1.12251e-17 -4 -4.5 -2.5 0.05 -8.5301e-12 -6.71423e-13 0.000392746 
207 1 5.53428e-18 8.4612e-14 -1.12192e-17 -3.5 -5 -2.5 0.05 6.15144e-16 -5.20588e-08 0.000392729 
212 1 -8.32201e-22 -4.62792e-14 1.73507e-17 -3 -4.5 -2.5 0.05 -6.90302e-12 -6.71902e-13 0.000392746 
211 1 -3.63898e-22 8.4612e-14 -1.12158e-17 -2.5 -5 -2.5 0.05 4.45005e-16 -5.20588e-08 0.000392729 
216 1 7.10764e-22 -4.62792e-14 1.73503e-17 -2 -4.5 -2.5 0.05 -6.90286e-12 -6.71902e-13 0.000392746 
215 1 2.03981e-18 8.4612e-14 -1.73467e-17 -1.5 -5 -2.5 0.05 1.66521e-15 -5.20588e-08 0.000392729 
220 1 4.62575e-14 -4.62907e-14 3.46958e-17 -1 -4.5 -2.5 0.05 -2.30146e-12 -6.72207e-13 0.000392746 
219 1 -2.15461e-13 2.15462e-13 -5.71375e-17 -0.5 -5 -2.5 0.05 5.20627e-08 -5.20611e-08 0.000392711 
223 1 -4.62867e-14 -1.96452e-17 1.12111e-17 -4.5 -4 -2.5 0.05 -6.71376e-13 -3.92572e-12 0.000392711 
227 1 1.44482e-18 -1.21652e-17 -6.13148e-18 -3.5 -4 -2.5 0.05 -3.29551e-16 2.9744e-12 0.000392699 
231 1 -2.36902e-22 -1.21644e-17 -6.13194e-18 -2.5 -4 -2.5 0.05 5.07681e-17 2.9744e-12 0.000392699 
235 1 -2.04495e-18 -1.21644e-17 -1.22619e-17 -1.5 -4 -2.5 0.05 9.65264e-16 2.9744e-12 0.000392699 
239 1 -8.4578e-14 2.7953e-18 -1.73383e-17 -0.5 -4 -2.5 0.05 5.20526e-08 -1.62799e-12 0.000392716 
224 1 8.46004e-14 1.44759e-18 -1.12102e-17 -5 -3.5 -2.5 0.05 -5.20542e-08 -1.3905e-16 0.000392729 
228 1 -5.95776e-19 5.53724e-18 -6.13246e-18 -4 -3.5 -2.5 0.05 -1.62752e-12 -3.29346e-16 0.000392699 
232 1 -2.36907e-22 5.53681e-18 -3.899e-22 -3 -3.5 -2.5 0.05 1.13992e-16 -5.4549e-16 0.000392699 
236 1 7.11475e-22 5.53681e-18 -4.68054e-22 -2 -3.5 -2.5 0.05 2.66729e-16 -5.45554e-16 0.000392699 
240 1 4.62696e-14 5.53497e-18 1.73441e-17 -1 -3.5 -2.5 0.05 2.29971e-12 -6.902e-12 0.000392699 
243 1 -4.62751e-14 4.8684e-23 1.73466e-17 -4.5 -3 -2.5 0.05 -6.72321e-13 -6.90205e-12 0.000392711 
247 1 1.44525e-18 -5.45954e-22 1.68576e-21 -3.5 -3 -2.5 0.05 -3.29635e-16 4.20376e-17 0.000392699 
251 1 -2.36956e-22 -5.45922e-22 1.22237e-21 -2.5 -3 -2.5 0.05 5.07995e-17 4.21321e-17 0.000392699 
255 1 -2.04758e-18 -5.45683e-22 -6.13031e-18 -1.5 -3 -2.5 0.05 2.18543e-15 4.2311e-17 0.000392699 
259 1 -8.45937e-14 -7.03717e-22 -1.12128e-17 -0.5 -3 -2.5 0.05 5.20526e-08 5.08201e-16 0.000392716 
244 1 8.46004e-14 -2.36413e-22 -1.12128e-17 -5 -2.5 -2.5 0.05 -5.20542e-08 4.45015e-16 0.000392729 
248 1 -5.96565e-19 -3.6467e-22 -6.1314e-18 -4 -2.5 -2.5 0.05 -1.62773e-12 2.66797e-16 0.000392699 
252 1 -2.36939e-22 -3.646e-22 6.80156e-22 -3 -2.5 -2.5 0.05 -1.01756e-16 5.07883e-17 0.000392699 
256 1 7.11775e-22 -3.646e-22 6.01642e-22 -2 -2.5 -2.5 0.05 5.09978e-17 5.05624e-17 0.000392699 
260 1 4.62696e-14 -3.64991e-22 1.73459e-17 -1 -2.5 -2.5 0.05 2.2991e-12 -6.90204e-12 0.000392699 
263 1 -4.62751e-14 7.11147e-22 1.73457e-17 -4.5 -2 -2.5 0.05 -6.72321e-13 -6.90204e-12 0.000392711 
267 1 1.44525e-18 7.11478e-22 7.93565e-22 -3.5 -2 -2.5 0.05 -3.29635e-16 5.08989e-17 0.000392699 
271 1 -2.36956e-22 7.11478e-22 3.30178e-22 -2.5 -2 -2.5 0.05 5.07995e-17 5.09934e-17 0.000392699 
275 1 -2.04758e-18 7.11478e-22 -6.1312e-18 -1.5 -2 -2.5 0.05 2.18543e-15 5.12326e-17 0.000392699 
279 1 -8.45937e-14 7.11736e-22 -1.12132e-17 -0.5 -2 -2.5 0.05 5.20526e-08 6.60927e-16 0.000392716 
264 1 8.46004e-14 2.03981e-18 -1.73437e-17 -5 -1.5 -2.5 0.05 -5.20542e-08 1.66523e-15 0.000392729 
268 1 -5.96565e-19 2.04209e-18 -1.22622e-17 -4 -1.5 -2.5 0.05 -1.62773e-12 1.48662e-15 0.000392699 
272 1 -2.36939e-22 2.04209e-18 -6.13009e-18 -3 -1.5 -2.5 0.05 -1.0175e-16 1.27061e-15 0.000392699 
276 1 7.11775e-22 2.04209e-18 -6.13017e-18 -2 -1.5 -2.5 0.05 5.10046e-17 1.27038e-15 0.000392699 
280 1 4.62696e-14 2.04209e-18 1.12151e-17 -1 -1.5 -2.5 0.05 2.2991e-12 -6.90082e-12 0.000392699 
283 1 -4.62751e-14 4.62609e-14 3.46896e-17 -4.5 -1 -2.5 0.05 -6.72321e-13 -2.30104e-12 0.000392711 
287 1 1.44525e-18 4.6258e-14 1.73466e-17 -3.5 -1 -2.5 0.05 -3.29597e-16 4.60062e-12 0.000392699 
291 1 -2.371e-22 4.6258e-14 1.73462e-17 -2.5 -1 -2.5 0.05 5.08377e-17 4.60062e-12 0.000392699 
295 1 -2.04758e-18 4.6258e-14 1.12146e-17 -1.5 -1 -2.5 0.05 2.18547e-15 4.60062e-12 0.000392699 
299 1 -8.45994e-14 4.62563e-14 2.34851e-17 -0.5 -1 -2.5 0.05 5.20526e-08 4.60194e-12 0.000392716 
284 1 2.15443e-13 -2.15472e-13 -5.71294e-17 -5 -0.5 -2.5 0.05 -5.20565e-08 5.20627e-08 0.000392711 
288 1 -4.68246e-18 -8.45821e-14 -1.73472e-17 -4 -0.5 -2.5 0.05 -1.62816e-12 5.20526e-08 0.000392682 
292 1 -1.08967e-22 -8.45862e-14 -1.12136e-17 -3 -0.5 -2.5 0.05 -1.01792e-16 5.20526e-08 0.000392682 
296 1 7.12187e-22 -8.45862e-14 -1.12136e-17 -2 -0.5 -2.5 0.05 5.09956e-17 5.20526e-08 0.000392682 
300 1 4.62712e-14 -8.45804e-14 2.34855e-17 -1 -0.5 -2.5 0.05 2.2994e-12 5.20457e-08 0.000392682 
301 1 2.1553e-13 2.15495e-13 -5.71336e-17 -5 -5 -2 0.05 -5.2069e-08 -5.20644e-08 0.000392758 
302 1 -4.62515e-14 -4.63168e-14 3.46849e-17 -4.5 -4.5 -2 0.05 -1.21783e-11 -2.97306e-12 0.000392758 
305 1 -3.93939e-17 8.46079e-14 -1.73532e-17 -4 -5 -2 0.05 2.97584e-12 -5.20588e-08 0.000392729 
306 1 1.44832e-18 -4.62792e-14 1.73514e-17 -3.5 -4.5 -2 0.05 -6.90364e-12 -6.7163e-13 0.000392746 
309 1 1.34747e-21 8.4612e-14 -1.12161e-17 -3 -5 -2 0.05 3.85523e-16 -5.20588e-08 0.000392729 
310 1 -4.56164e-23 -4.62792e-14 1.735e-17 -2.5 -4.5 -2 0.05 -6.90291e-12 -6.71953e-13 0.000392746 
313 1 9.03321e-22 8.4612e-14 -1.1217e-17 -2 -5 -2 0.05 3.94392e-16 -5.20588e-08 0.000392729 