ITEM: TIMESTEP
8
ITEM: NUMBER OF ATOMS
4000
ITEM: BOX BOUNDS ff ff ff
-5 5
-5 5
-5 5
ITEM: ATOMS id type fx fy fz x y z radius mux muy muz 
1 1 1.92096e-14 1.92096e-14 -3.83187e-14 -5 -5 -5 0.05 5.2068e-08 5.2068e-08 0.000392699 
2 1 -4.62382e-14 -4.62382e-14 -1.69082e-13 -4.5 -4.5 -5 0.05 -1.62817e-12 -1.62817e-12 0.00039263 
3 1 -4.63018e-14 8.46037e-14 9.24854e-14 -4.5 -5 -4.5 0.05 4.6007e-12 3.24964e-12 0.000392734 
4 1 8.46037e-14 -4.63018e-14 9.24854e-14 -5 -4.5 -4.5 0.05 3.24964e-12 4.6007e-12 0.000392734 
5 1 1.4419e-18 -1.11642e-13 -1.0375e-13 -4 -5 -5 0.05 1.62635e-12 5.20602e-08 0.000392669 
8 1 1.45484e-18 -4.63098e-14 9.24418e-14 -4 -4.5 -4.5 0.05 -1.0662e-15 4.59841e-12 0.000392687 
6 1 1.44416e-18 -4.62237e-14 -1.69103e-13 -3.5 -4.5 -5 0.05 3.80609e-16 -1.62926e-12 0.000392617 
7 1 1.44588e-18 8.46058e-14 9.25027e-14 -3.5 -5 -4.5 0.05 2.15609e-16 3.24935e-12 0.000392722 
9 1 -1.08677e-22 -1.11638e-13 -1.03754e-13 -3 -5 -5 0.05 1.52501e-16 5.20602e-08 0.000392669 
12 1 -1.73393e-22 -4.63098e-14 9.24418e-14 -3 -4.5 -4.5 0.05 3.14199e-20 4.59841e-12 0.000392687 
10 1 -4.509e-23 -4.62237e-14 -1.69103e-13 -2.5 -4.5 -5 0.05 2.21679e-20 -1.62926e-12 0.000392617 
11 1 -4.52457e-23 8.46058e-14 9.25027e-14 -2.5 -5 -4.5 0.05 2.6933e-20 3.24935e-12 0.000392722 
13 1 5.41381e-27 -1.11638e-13 -1.03754e-13 -2 -5 -5 0.05 7.9473e-21 5.20602e-08 0.000392669 
16 1 9.46633e-27 -4.63098e-14 9.24418e-14 -2 -4.5 -4.5 0.05 6.61727e-24 4.59841e-12 0.000392687 
14 1 1.41364e-27 -4.62237e-14 -1.69103e-13 -1.5 -4.5 -5 0.05 3.52134e-25 -1.62926e-12 0.000392617 
15 1 1.41364e-27 8.46058e-14 9.25027e-14 -1.5 -5 -4.5 0.05 -2.06802e-28 3.24935e-12 0.000392722 
17 1 1.26218e-29 -1.11638e-13 -1.03754e-13 -1 -5 -5 0.05 -4.24983e-33 5.20602e-08 0.000392669 
20 1 -2.55079e-48 -4.63098e-14 9.24418e-14 -1 -4.5 -4.5 0.05 1.91468e-39 4.59841e-12 0.000392687 
18 1 -2.53175e-38 -4.62237e-14 -1.69103e-13 -0.5 -4.5 -5 0.05 2.14895e-28 -1.62926e-12 0.000392617 
19 1 -4.83322e-50 8.46058e-14 9.25027e-14 -0.5 -5 -4.5 0.05 4.10208e-40 3.24935e-12 0.000392722 
21 1 -1.11642e-13 1.4419e-18 -1.0375e-13 -5 -4 -5 0.05 5.20602e-08 1.62635e-12 0.000392669 
23 1 -4.63098e-14 1.45484e-18 9.24418e-14 -4.5 -4 -4.5 0.05 4.59841e-12 -1.0662e-15 0.000392687 
25 1 9.61416e-18 9.61416e-18 -1.69115e-13 -4 -4 -5 0.05 1.62598e-12 1.62598e-12 0.000392605 
27 1 1.44681e-18 1.45779e-18 9.24592e-14 -3.5 -4 -4.5 0.05 2.15592e-16 -1.06602e-15 0.000392675 
29 1 -4.91628e-22 9.61263e-18 -1.69119e-13 -3 -4 -5 0.05 1.52481e-16 1.62598e-12 0.000392605 
31 1 -4.52957e-23 1.45779e-18 9.24592e-14 -2.5 -4 -4.5 0.05 2.69131e-20 -1.06602e-15 0.000392675 
33 1 2.13803e-26 9.61263e-18 -1.69119e-13 -2 -4 -5 0.05 7.94828e-21 1.62598e-12 0.000392605 
35 1 1.41364e-27 1.45779e-18 9.24592e-14 -1.5 -4 -4.5 0.05 -6.20301e-28 -1.06602e-15 0.000392675 
37 1 -1.81731e-39 9.61263e-18 -1.69119e-13 -1 -4 -5 0.05 1.54258e-29 1.62598e-12 0.000392605 
39 1 -1.29639e-46 1.45779e-18 9.24592e-14 -0.5 -4 -4.5 0.05 1.47072e-37 -1.06602e-15 0.000392675 
22 1 -4.62237e-14 1.44416e-18 -1.69103e-13 -4.5 -3.5 -5 0.05 -1.62926e-12 3.80609e-16 0.000392617 
24 1 8.46058e-14 1.44588e-18 9.25027e-14 -5 -3.5 -4.5 0.05 3.24935e-12 2.15609e-16 0.000392722 
28 1 1.45779e-18 1.44681e-18 9.24592e-14 -4 -3.5 -4.5 0.05 -1.06602e-15 2.15592e-16 0.000392675 
26 1 1.44294e-18 1.44294e-18 -1.69123e-13 -3.5 -3.5 -5 0.05 3.80591e-16 3.80591e-16 0.000392605 
32 1 -1.73715e-22 1.44681e-18 9.24592e-14 -3 -3.5 -4.5 0.05 3.14464e-20 2.15592e-16 0.000392675 
30 1 -4.50167e-23 1.44294e-18 -1.69123e-13 -2.5 -3.5 -5 0.05 2.21746e-20 3.80591e-16 0.000392605 
36 1 9.44108e-27 1.44681e-18 9.24592e-14 -2 -3.5 -4.5 0.05 -2.33949e-27 2.15592e-16 0.000392675 
34 1 1.3884e-27 1.44294e-18 -1.69123e-13 -1.5 -3.5 -5 0.05 3.49502e-25 3.80591e-16 0.000392605 
40 1 6.6727e-48 1.44681e-18 9.24592e-14 -1 -3.5 -4.5 0.05 1.11518e-38 2.15592e-16 0.000392675 
38 1 1.53127e-38 1.44294e-18 -1.69123e-13 -0.5 -3.5 -5 0.05 -1.29978e-28 3.80591e-16 0.000392605 
41 1 -1.11638e-13 -1.08677e-22 -1.03754e-13 -5 -3 -5 0.05 5.20602e-08 1.52501e-16 0.000392669 
43 1 -4.63098e-14 -1.73393e-22 9.24418e-14 -4.5 -3 -4.5 0.05 4.59841e-12 3.14196e-20 0.000392687 
45 1 9.61263e-18 -4.91628e-22 -1.69119e-13 -4 -3 -5 0.05 1.62598e-12 1.52481e-16 0.000392605 
47 1 1.44681e-18 -1.73715e-22 9.24592e-14 -3.5 -3 -4.5 0.05 2.15592e-16 3.14461e-20 0.000392675 
49 1 -4.91465e-22 -4.91465e-22 -1.69123e-13 -3 -3 -5 0.05 1.52481e-16 1.52481e-16 0.000392605 
51 1 -4.52956e-23 -1.73714e-22 9.24592e-14 -2.5 -3 -4.5 0.05 2.68933e-20 3.14395e-20 0.000392675 
53 1 2.13299e-26 -4.91465e-22 -1.69123e-13 -2 -3 -5 0.05 7.92843e-21 1.52481e-16 0.000392605 
55 1 1.41364e-27 -1.73714e-22 9.24592e-14 -1.5 -3 -4.5 0.05 -4.13603e-28 3.14395e-20 0.000392675 
57 1 -1.81867e-39 -4.91465e-22 -1.69123e-13 -1 -3 -5 0.05 1.54373e-29 1.52481e-16 0.000392605 
59 1 -1.25874e-46 -1.73714e-22 9.24592e-14 -0.5 -3 -4.5 0.05 1.09785e-37 3.14395e-20 0.000392675 
42 1 -4.62237e-14 -4.509e-23 -1.69103e-13 -4.5 -2.5 -5 0.05 -1.62926e-12 2.21701e-20 0.000392617 
44 1 8.46058e-14 -4.52457e-23 9.25027e-14 -5 -2.5 -4.5 0.05 3.24935e-12 2.69396e-20 0.000392722 
48 1 1.45779e-18 -4.52957e-23 9.24592e-14 -4 -2.5 -4.5 0.05 -1.06602e-15 2.69131e-20 0.000392675 
46 1 1.44294e-18 -4.50167e-23 -1.69123e-13 -3.5 -2.5 -5 0.05 3.80591e-16 2.21754e-20 0.000392605 
52 1 -1.73714e-22 -4.52957e-23 9.24592e-14 -3 -2.5 -4.5 0.05 3.14398e-20 2.69065e-20 0.000392675 
50 1 -4.50167e-23 -4.50166e-23 -1.69123e-13 -2.5 -2.5 -5 0.05 2.21812e-20 2.21831e-20 0.000392605 
56 1 9.49157e-27 -4.52957e-23 9.24592e-14 -2 -2.5 -4.5 0.05 -1.32386e-23 2.69131e-20 0.000392675 
54 1 1.3884e-27 -4.50166e-23 -1.69123e-13 -1.5 -2.5 -5 0.05 3.49502e-25 2.2182e-20 0.000392605 
60 1 7.04755e-48 -4.52957e-23 9.24592e-14 -1 -2.5 -4.5 0.05 -1.13264e-38 2.69131e-20 0.000392675 
58 1 5.98667e-43 -4.50166e-23 -1.69123e-13 -0.5 -2.5 -5 0.05 -5.08183e-33 2.2182e-20 0.000392605 
61 1 -1.11638e-13 5.41381e-27 -1.03754e-13 -5 -2 -5 0.05 5.20602e-08 7.94755e-21 0.000392669 
63 1 -4.63098e-14 9.46633e-27 9.24418e-14 -4.5 -2 -4.5 0.05 4.59841e-12 6.61786e-24 0.000392687 
65 1 9.61263e-18 2.1374e-26 -1.69119e-13 -4 -2 -5 0.05 1.62598e-12 7.95593e-21 0.000392605 
67 1 1.44681e-18 9.44109e-27 9.24592e-14 -3.5 -2 -4.5 0.05 2.15592e-16 6.61744e-24 0.000392675 
69 1 -4.91465e-22 2.13299e-26 -1.69123e-13 -3 -2 -5 0.05 1.52481e-16 7.93726e-21 0.000392605 
71 1 -4.52956e-23 9.49157e-27 9.24592e-14 -2.5 -2 -4.5 0.05 2.69131e-20 -1.32357e-23 0.000392675 
73 1 2.12794e-26 2.12857e-26 -1.69123e-13 -2 -2 -5 0.05 7.92843e-21 7.93432e-21 0.000392605 
75 1 1.43888e-27 9.46633e-27 9.24592e-14 -1.5 -2 -4.5 0.05 -1.05021e-37 1.32353e-23 0.000392675 
77 1 -1.81867e-39 2.12352e-26 -1.69123e-13 -1 -2 -5 0.05 1.54373e-29 7.9277e-21 0.000392605 
79 1 -2.52435e-29 9.46633e-27 9.24592e-14 -0.5 -2 -4.5 0.05 3.94953e-37 1.32353e-23 0.000392675 
62 1 -4.62237e-14 1.40733e-27 -1.69103e-13 -4.5 -1.5 -5 0.05 -1.62926e-12 1.28917e-24 0.000392617 
64 1 8.46058e-14 1.41364e-27 9.25027e-14 -5 -1.5 -4.5 0.05 3.24935e-12 -2.06802e-28 0.000392722 
68 1 1.45779e-18 1.41364e-27 9.24592e-14 -4 -1.5 -4.5 0.05 -1.06602e-15 -6.20405e-28 0.000392675 
66 1 1.44294e-18 1.41995e-27 -1.69123e-13 -3.5 -1.5 -5 0.05 3.80591e-16 2.83591e-26 0.000392605 
72 1 -1.73714e-22 1.41364e-27 9.24592e-14 -3 -1.5 -4.5 0.05 3.14398e-20 6.61703e-24 0.000392675 
70 1 -4.50167e-23 1.41995e-27 -1.69123e-13 -2.5 -1.5 -5 0.05 2.21812e-20 1.05153e-24 0.000392605 
76 1 9.46632e-27 1.43888e-27 9.24592e-14 -2 -1.5 -4.5 0.05 1.32324e-23 -2.39814e-40 0.000392675 
74 1 1.41364e-27 1.41995e-27 -1.69123e-13 -1.5 -1.5 -5 0.05 3.49502e-25 2.05028e-33 0.000392605 
80 1 -2.52435e-29 1.43888e-27 9.24592e-14 -1 -1.5 -4.5 0.05 2.08727e-38 -1.26218e-41 0.000392675 
78 1 5.98074e-43 1.41995e-27 -1.69123e-13 -0.5 -1.5 -5 0.05 -5.07695e-33 -1.72883e-32 0.000392605 
81 1 -1.11638e-13 1.26218e-29 -1.03754e-13 -5 -1 -5 0.05 5.20602e-08 -7.19808e-33 0.000392669 
83 1 -4.63098e-14 5.05585e-50 9.24418e-14 -4.5 -1 -4.5 0.05 4.59841e-12 -4.2914e-40 0.000392687 
85 1 9.61263e-18 -6.31187e-30 -1.69119e-13 -4 -1 -5 0.05 1.62598e-12 8.37349e-24 0.000392605 
87 1 1.44681e-18 1.10036e-49 9.24592e-14 -3.5 -1 -4.5 0.05 2.15592e-16 -9.34011e-40 0.000392675 
89 1 -4.91465e-22 -3.46486e-34 -1.69123e-13 -3 -1 -5 0.05 1.52481e-16 2.94107e-24 0.000392605 
91 1 -4.52956e-23 1.09292e-49 9.24592e-14 -2.5 -1 -4.5 0.05 2.69131e-20 -9.277e-40 0.000392675 
93 1 2.12289e-26 6.31011e-30 -1.69123e-13 -2 -1 -5 0.05 7.92843e-21 6.61749e-24 0.000392605 
95 1 1.43888e-27 2.52435e-29 9.24592e-14 -1.5 -1 -4.5 0.05 -4.80604e-38 -7.50996e-40 0.000392675 
97 1 -1.82307e-39 6.31089e-30 -1.69123e-13 -1 -1 -5 0.05 1.54747e-29 -8.14473e-33 0.000392605 
99 1 -2.52435e-29 2.52435e-29 9.24592e-14 -0.5 -1 -4.5 0.05 1.43953e-37 -6.81576e-40 0.000392675 
82 1 -4.62237e-14 -1.51846e-34 -1.69103e-13 -4.5 -0.5 -5 0.05 -1.62926e-12 1.28887e-24 0.000392617 
84 1 8.46058e-14 -7.80751e-50 9.25027e-14 -5 -0.5 -4.5 0.05 3.24935e-12 6.62643e-40 0.000392722 
88 1 1.45779e-18 -1.85127e-49 9.24592e-14 -4 -0.5 -4.5 0.05 -1.06602e-15 1.57141e-39 0.000392675 
86 1 1.44294e-18 -3.39417e-36 -1.69123e-13 -3.5 -0.5 -5 0.05 3.80591e-16 2.88106e-26 0.000392605 
92 1 -1.73714e-22 -1.04088e-49 9.24592e-14 -3 -0.5 -4.5 0.05 3.14398e-20 8.83524e-40 0.000392675 
90 1 -4.50167e-23 -1.23823e-34 -1.69123e-13 -2.5 -0.5 -5 0.05 2.21812e-20 1.05104e-24 0.000392605 
96 1 9.46632e-27 -2.52435e-29 9.24592e-14 -2 -0.5 -4.5 0.05 1.32324e-23 1.37577e-39 0.000392675 
94 1 1.41364e-27 6.78674e-43 -1.69123e-13 -1.5 -0.5 -5 0.05 3.50336e-25 -5.76077e-33 0.000392605 
100 1 -2.52435e-29 2.52435e-29 9.24592e-14 -1 -0.5 -4.5 0.05 9.28549e-39 -4.10208e-40 0.000392675 
98 1 -5.76346e-43 1.6306e-42 -1.69123e-13 -0.5 -0.5 -5 0.05 4.89214e-33 -1.3841e-32 0.000392605 
101 1 2.15516e-13 2.15516e-13 5.78991e-18 -5 -5 -4 0.05 1.62674e-12 1.62674e-12 0.000392758 
102 1 -4.62953e-14 -4.62953e-14 5.77844e-18 -4.5 -4.5 -4 0.05 -7.8739e-16 -7.8739e-16 0.000392724 
105 1 -6.73805e-18 8.45939e-14 5.78089e-18 -4 -5 -4 0.05 1.06749e-15 1.62634e-12 0.000392746 
106 1 1.44767e-18 -4.62809e-14 5.77482e-18 -3.5 -4.5 -4 0.05 -2.64235e-19 -7.87475e-16 0.000392711 
109 1 2.1022e-22 8.4598e-14 5.78172e-18 -3 -5 -4 0.05 7.14353e-20 1.62634e-12 0.000392746 
110 1 -4.52706e-23 -4.62809e-14 5.77482e-18 -2.5 -4.5 -4 0.05 1.32353e-23 -7.87475e-16 0.000392711 
113 1 -6.48759e-27 8.4598e-14 5.78172e-18 -2 -5 -4 0.05 -6.61765e-24 1.62634e-12 0.000392746 
114 1 1.43887e-27 -4.62809e-14 5.77482e-18 -1.5 -4.5 -4 0.05 -1.96163e-27 -7.87475e-16 0.000392711 
117 1 4.46719e-49 8.4598e-14 5.78172e-18 -1 -5 -4 0.05 -1.30493e-39 1.62634e-12 0.000392746 
118 1 2.52435e-29 -4.62809e-14 5.77482e-18 -0.5 -4.5 -4 0.05 1.26479e-37 -7.87475e-16 0.000392711 
121 1 8.45939e-14 -6.73805e-18 5.78089e-18 -5 -4 -4 0.05 1.62634e-12 1.06749e-15 0.000392746 
125 1 1.44383e-18 1.44383e-18 5.76953e-18 -4 -4 -4 0.05 1.06714e-15 1.06714e-15 0.000392699 
129 1 -1.73278e-22 1.4423e-18 5.77036e-18 -3 -4 -4 0.05 7.14552e-20 1.06714e-15 0.000392699 
133 1 9.41584e-27 1.4423e-18 5.77036e-18 -2 -4 -4 0.05 6.61744e-24 1.06714e-15 0.000392699 
137 1 5.57964e-48 1.4423e-18 5.77036e-18 -1 -4 -4 0.05 1.03762e-38 1.06714e-15 0.000392699 
122 1 -4.62809e-14 1.44767e-18 5.77482e-18 -4.5 -3.5 -4 0.05 -7.87475e-16 -2.64241e-19 0.000392711 
126 1 1.44645e-18 1.44645e-18 5.77119e-18 -3.5 -3.5 -4 0.05 -2.64235e-19 -2.64235e-19 0.000392699 
130 1 -4.51972e-23 1.44645e-18 5.77119e-18 -2.5 -3.5 -4 0.05 6.61824e-24 -2.64228e-19 0.000392699 
134 1 1.41363e-27 1.44645e-18 5.77119e-18 -1.5 -3.5 -4 0.05 -1.16988e-27 -2.64228e-19 0.000392699 
138 1 -1.16827e-46 1.44645e-18 5.77119e-18 -0.5 -3.5 -4 0.05 1.37966e-37 -2.64228e-19 0.000392699 
141 1 8.4598e-14 2.1022e-22 5.78172e-18 -5 -3 -4 0.05 1.62634e-12 7.14353e-20 0.000392746 
145 1 1.4423e-18 -1.73278e-22 5.77036e-18 -4 -3 -4 0.05 1.06714e-15 7.14618e-20 0.000392699 
149 1 -1.73115e-22 -1.73115e-22 5.77119e-18 -3 -3 -4 0.05 7.14618e-20 7.14684e-20 0.000392699 
153 1 9.41582e-27 -1.73115e-22 5.77119e-18 -2 -3 -4 0.05 2.64679e-23 7.14486e-20 0.000392699 
157 1 3.68531e-47 -1.73115e-22 5.77119e-18 -1 -3 -4 0.05 -2.84047e-38 7.14486e-20 0.000392699 
142 1 -4.62809e-14 -4.52706e-23 5.77482e-18 -4.5 -2.5 -4 0.05 -7.87475e-16 1.32347e-23 0.000392711 
146 1 1.44645e-18 -4.51972e-23 5.77119e-18 -3.5 -2.5 -4 0.05 -2.64228e-19 6.61765e-24 0.000392699 
150 1 -4.51972e-23 -4.51972e-23 5.77119e-18 -2.5 -2.5 -4 0.05 -6.62157e-24 -6.61807e-24 0.000392699 
154 1 1.41364e-27 -4.51972e-23 5.77119e-18 -1.5 -2.5 -4 0.05 -3.00513e-38 -2.06782e-28 0.000392699 
158 1 -2.37662e-46 -4.51972e-23 5.77119e-18 -0.5 -2.5 -4 0.05 1.92802e-37 -2.06782e-28 0.000392699 
161 1 8.4598e-14 -6.48759e-27 5.78172e-18 -5 -2 -4 0.05 1.62634e-12 -6.61765e-24 0.000392746 
165 1 1.4423e-18 9.3906e-27 5.77036e-18 -4 -2 -4 0.05 1.06714e-15 6.61744e-24 0.000392699 
169 1 -1.73115e-22 9.41584e-27 5.77119e-18 -3 -2 -4 0.05 7.14419e-20 2.64702e-23 0.000392699 
173 1 9.54205e-27 9.51682e-27 5.77119e-18 -2 -2 -4 0.05 3.30892e-23 3.30881e-23 0.000392699 
177 1 -2.77553e-47 9.54206e-27 5.77119e-18 -1 -2 -4 0.05 1.0268e-38 3.30881e-23 0.000392699 
162 1 -4.62809e-14 1.38839e-27 5.77482e-18 -4.5 -1.5 -4 0.05 -7.87475e-16 -2.06802e-28 0.000392711 
166 1 1.44645e-18 1.43888e-27 5.77119e-18 -3.5 -1.5 -4 0.05 -2.64228e-19 -3.25605e-40 0.000392699 
170 1 -4.51971e-23 1.41364e-27 5.77119e-18 -2.5 -1.5 -4 0.05 -2.54635e-27 -2.85321e-40 0.000392699 
174 1 1.41364e-27 1.41364e-27 5.77119e-18 -1.5 -1.5 -4 0.05 -1.08688e-37 -2.27287e-40 0.000392699 
178 1 -2.44982e-46 1.41364e-27 5.77119e-18 -0.5 -1.5 -4 0.05 3.38315e-37 -1.90413e-40 0.000392699 
181 1 8.4598e-14 1.97165e-49 5.78172e-18 -5 -1 -4 0.05 1.62634e-12 -1.00527e-39 0.000392746 
185 1 1.4423e-18 -2.61651e-49 5.77036e-18 -4 -1 -4 0.05 1.06714e-15 -4.77959e-40 0.000392699 
189 1 -1.73115e-22 3.56309e-49 5.77119e-18 -3 -1 -4 0.05 7.14419e-20 -1.16158e-39 0.000392699 
193 1 9.54205e-27 2.52435e-29 5.77119e-18 -2 -1 -4 0.05 3.30892e-23 -9.57677e-40 0.000392699 
197 1 1.14169e-47 2.53863e-49 5.77119e-18 -1 -1 -4 0.05 3.71783e-38 -1.30489e-39 0.000392699 
182 1 -4.62809e-14 -2.52435e-29 5.77482e-18 -4.5 -0.5 -4 0.05 -7.87475e-16 -2.00021e-37 0.000392711 
186 1 1.44645e-18 2.52435e-29 5.77119e-18 -3.5 -0.5 -4 0.05 -2.64228e-19 1.1697e-39 0.000392699 
190 1 -4.51971e-23 -9.74059e-51 5.77119e-18 -2.5 -0.5 -4 0.05 -2.5464e-27 1.17309e-39 0.000392699 
194 1 1.41364e-27 -2.09221e-48 5.77119e-18 -1.5 -0.5 -4 0.05 -1.58072e-38 1.75557e-39 0.000392699 
198 1 3.3764e-44 2.09268e-49 5.77119e-18 -0.5 -0.5 -4 0.05 3.65136e-38 -4.88581e-41 0.000392699 
103 1 -4.62729e-14 8.4602e-14 5.77927e-18 -4.5 -5 -3.5 0.05 2.15511e-16 9.63744e-16 0.000392758 
104 1 8.4602e-14 -4.62729e-14 5.77927e-18 -5 -4.5 -3.5 0.05 9.63744e-16 2.15511e-16 0.000392758 
108 1 1.44427e-18 -4.62809e-14 5.7756e-18 -4 -4.5 -3.5 0.05 -1.71047e-19 2.15375e-16 0.000392711 
107 1 1.44552e-18 8.46041e-14 5.78098e-18 -3.5 -5 -3.5 0.05 1.5275e-19 9.63826e-16 0.000392746 
112 1 -1.7279e-22 -4.62809e-14 5.7756e-18 -3 -4.5 -3.5 0.05 -4.6326e-23 2.15375e-16 0.000392711 
111 1 -4.5147e-23 8.46041e-14 5.78098e-18 -2.5 -5 -3.5 0.05 8.27181e-28 9.63826e-16 0.000392746 
116 1 9.46634e-27 -4.62809e-14 5.7756e-18 -2 -4.5 -3.5 0.05 -1.32345e-23 2.15375e-16 0.000392711 
115 1 1.46413e-27 8.46041e-14 5.78098e-18 -1.5 -5 -3.5 0.05 6.61765e-24 9.63826e-16 0.000392746 
120 1 2.16157e-47 -4.62809e-14 5.7756e-18 -1 -4.5 -3.5 0.05 -1.50264e-38 2.15375e-16 0.000392711 
119 1 0 8.46041e-14 5.78098e-18 -0.5 -5 -3.5 0.05 0 9.63826e-16 0.000392746 
123 1 -4.62809e-14 1.44427e-18 5.7756e-18 -4.5 -4 -3.5 0.05 2.15375e-16 -1.71048e-19 0.000392711 
127 1 1.44645e-18 1.44722e-18 5.77732e-18 -3.5 -4 -3.5 0.05 1.52691e-19 -1.70988e-19 0.000392699 
131 1 -4.51972e-23 1.44722e-18 5.77732e-18 -2.5 -4 -3.5 0.05 -6.61665e-24 -1.71001e-19 0.000392699 
135 1 1.43888e-27 1.44722e-18 5.77732e-18 -1.5 -4 -3.5 0.05 1.9853e-23 -1.70962e-19 0.000392699 
139 1 -1.46579e-46 1.44722e-18 5.77732e-18 -0.5 -4 -3.5 0.05 1.47164e-37 -1.70962e-19 0.000392699 
124 1 8.46041e-14 1.44552e-18 5.78098e-18 -5 -3.5 -3.5 0.05 9.63826e-16 1.5275e-19 0.000392746 
128 1 1.44722e-18 1.44645e-18 5.77732e-18 -4 -3.5 -3.5 0.05 -1.70981e-19 1.52698e-19 0.000392699 
132 1 -1.73112e-22 1.44645e-18 5.77731e-18 -3 -3.5 -3.5 0.05 -6.6177e-23 1.52698e-19 0.000392699 
136 1 9.44109e-27 1.44645e-18 5.77731e-18 -2 -3.5 -3.5 0.05 1.37646e-27 1.52691e-19 0.000392699 
140 1 3.95295e-47 1.44645e-18 5.77731e-18 -1 -3.5 -3.5 0.05 -1.8999e-38 1.52704e-19 0.000392699 
143 1 -4.62809e-14 -1.7279e-22 5.7756e-18 -4.5 -3 -3.5 0.05 2.15375e-16 -4.63219e-23 0.000392711 
147 1 1.44645e-18 -1.73112e-22 5.77731e-18 -3.5 -3 -3.5 0.05 1.52691e-19 -6.61747e-23 0.000392699 
151 1 -4.51971e-23 -1.73112e-22 5.77732e-18 -2.5 -3 -3.5 0.05 -6.62003e-24 -7.94095e-23 0.000392699 
155 1 1.43888e-27 -1.73112e-22 5.77732e-18 -1.5 -3 -3.5 0.05 1.32353e-23 -5.29394e-23 0.000392699 
159 1 -1.25467e-46 -1.73112e-22 5.77732e-18 -0.5 -3 -3.5 0.05 1.02859e-37 -5.29394e-23 0.000392699 
144 1 8.46041e-14 -4.5147e-23 5.78098e-18 -5 -2.5 -3.5 0.05 9.63826e-16 8.27181e-28 0.000392746 
148 1 1.44722e-18 -4.51972e-23 5.77732e-18 -4 -2.5 -3.5 0.05 -1.70994e-19 -6.61724e-24 0.000392699 
152 1 -1.73112e-22 -4.51971e-23 5.77732e-18 -3 -2.5 -3.5 0.05 -7.94154e-23 -6.61827e-24 0.000392699 
156 1 9.34011e-27 -4.51971e-23 5.77732e-18 -2 -2.5 -3.5 0.05 2.64727e-23 3.97051e-23 0.000392699 
160 1 1.81855e-47 -4.51971e-23 5.77732e-18 -1 -2.5 -3.5 0.05 -4.55025e-38 2.64698e-23 0.000392699 
163 1 -4.62809e-14 9.46633e-27 5.7756e-18 -4.5 -2 -3.5 0.05 2.15375e-16 -1.32345e-23 0.000392711 
167 1 1.44645e-18 9.49158e-27 5.77731e-18 -3.5 -2 -3.5 0.05 1.52684e-19 2.06802e-28 0.000392699 
171 1 -4.51971e-23 9.36536e-27 5.77732e-18 -2.5 -2 -3.5 0.05 3.97045e-23 2.64704e-23 0.000392699 
175 1 1.3884e-27 9.34011e-27 5.77732e-18 -1.5 -2 -3.5 0.05 -1.12547e-37 -1.32349e-23 0.000392699 
179 1 -3.28529e-46 9.34011e-27 5.77732e-18 -0.5 -2 -3.5 0.05 3.83397e-37 -1.32349e-23 0.000392699 
164 1 8.46041e-14 1.46413e-27 5.78098e-18 -5 -1.5 -3.5 0.05 9.63826e-16 6.61765e-24 0.000392746 
168 1 1.44722e-18 1.41364e-27 5.77732e-18 -4 -1.5 -3.5 0.05 -1.70955e-19 1.9853e-23 0.000392699 
172 1 -1.73112e-22 1.43888e-27 5.77732e-18 -3 -1.5 -3.5 0.05 -5.29452e-23 1.32353e-23 0.000392699 
176 1 9.31488e-27 1.3884e-27 5.77732e-18 -2 -1.5 -3.5 0.05 -1.32326e-23 0 0.000392699 
180 1 4.5414e-47 1.41364e-27 5.77732e-18 -1 -1.5 -3.5 0.05 6.15346e-38 0 0.000392699 
183 1 -4.62809e-14 2.52435e-29 5.7756e-18 -4.5 -1 -3.5 0.05 2.15375e-16 0 0.000392711 
187 1 1.44645e-18 2.52435e-29 5.77731e-18 -3.5 -1 -3.5 0.05 1.52698e-19 0 0.000392699 
191 1 -4.51971e-23 2.52435e-29 5.77732e-18 -2.5 -1 -3.5 0.05 2.64692e-23 0 0.000392699 
195 1 1.3884e-27 0 5.77732e-18 -1.5 -1 -3.5 0.05 -6.72616e-38 0 0.000392699 
199 1 -7.61622e-47 0 5.77732e-18 -0.5 -1 -3.5 0.05 1.59659e-37 0 0.000392699 
184 1 8.46041e-14 0 5.78098e-18 -5 -0.5 -3.5 0.05 9.63826e-16 0 0.000392746 
188 1 1.44722e-18 2.52435e-29 5.77732e-18 -4 -0.5 -3.5 0.05 -1.70955e-19 0 0.000392699 
192 1 -1.73112e-22 2.52435e-29 5.77732e-18 -3 -0.5 -3.5 0.05 -5.29452e-23 0 0.000392699 
196 1 9.31488e-27 -2.52435e-29 5.77732e-18 -2 -0.5 -3.5 0.05 -1.32326e-23 0 0.000392699 
200 1 -3.27433e-44 0 5.77732e-18 -1 -0.5 -3.5 0.05 -3.47612e-38 0 0.000392699 
201 1 2.15522e-13 2.15522e-13 8.72928e-22 -5 -5 -3 0.05 1.52523e-16 1.52523e-16 0.000392758 
202 1 -4.62953e-14 -4.62953e-14 1.38143e-21 -4.5 -4.5 -3 0.05 6.59405e-20 6.59428e-20 0.000392724 
205 1 -6.73313e-18 8.46001e-14 1.12731e-21 -4 -5 -3 0.05 7.14419e-20 1.52469e-16 0.000392746 
206 1 1.44767e-18 -4.62809e-14 1.38141e-21 -3.5 -4.5 -3 0.05 -3.9706e-23 6.58767e-20 0.000392711 
209 1 2.10222e-22 8.46041e-14 1.12747e-21 -3 -5 -3 0.05 4.63227e-23 1.52469e-16 0.000392746 
210 1 -4.52705e-23 -4.62809e-14 1.38141e-21 -2.5 -4.5 -3 0.05 6.61824e-24 6.58833e-20 0.000392711 
213 1 -6.58857e-27 8.46041e-14 1.12747e-21 -2 -5 -3 0.05 6.61744e-24 1.52469e-16 0.000392746 
214 1 1.41364e-27 -4.62809e-14 1.38141e-21 -1.5 -4.5 -3 0.05 6.61941e-24 6.58899e-20 0.000392711 
217 1 1.75727e-49 8.46041e-14 1.12747e-21 -1 -5 -3 0.05 -2.48648e-39 1.52469e-16 0.000392746 
218 1 -2.52435e-29 -4.62809e-14 1.38141e-21 -0.5 -4.5 -3 0.05 1.67919e-37 6.58899e-20 0.000392711 
221 1 8.46001e-14 -6.73313e-18 1.12731e-21 -5 -4 -3 0.05 1.52469e-16 7.14419e-20 0.000392746 
225 1 1.44875e-18 1.44875e-18 1.38108e-21 -4 -4 -3 0.05 7.14155e-20 7.14088e-20 0.000392699 
229 1 -1.73276e-22 1.44722e-18 1.38124e-21 -3 -4 -3 0.05 4.63221e-23 7.14155e-20 0.000392699 
233 1 9.3906e-27 1.44722e-18 1.38124e-21 -2 -4 -3 0.05 5.84942e-28 7.1389e-20 0.000392699 
237 1 3.88166e-47 1.44722e-18 1.38124e-21 -1 -4 -3 0.05 -3.3349e-38 7.13824e-20 0.000392699 
222 1 -4.62809e-14 1.44767e-18 1.38141e-21 -4.5 -3.5 -3 0.05 6.58809e-20 -3.97049e-23 0.000392711 
226 1 1.44645e-18 1.44645e-18 1.3814e-21 -3.5 -3.5 -3 0.05 -3.30827e-23 -3.30868e-23 0.000392699 
230 1 -4.51971e-23 1.44645e-18 1.3814e-21 -2.5 -3.5 -3 0.05 -6.61958e-24 -4.63225e-23 0.000392699 
234 1 1.41364e-27 1.44645e-18 1.3814e-21 -1.5 -3.5 -3 0.05 1.16981e-27 -5.95574e-23 0.000392699 
238 1 -1.37089e-46 1.44645e-18 1.3814e-21 -0.5 -3.5 -3 0.05 1.72536e-37 -5.95574e-23 0.000392699 
241 1 8.46041e-14 2.10222e-22 1.12747e-21 -5 -3 -3 0.05 1.52469e-16 4.63227e-23 0.000392746 
245 1 1.44722e-18 -1.73276e-22 1.38124e-21 -4 -3 -3 0.05 7.14221e-20 4.63227e-23 0.000392699 
249 1 -1.73113e-22 -1.73113e-22 1.3814e-21 -3 -3 -3 0.05 2.6469e-23 2.64696e-23 0.000392699 
253 1 9.39061e-27 -1.73113e-22 1.3814e-21 -2 -3 -3 0.05 -1.32331e-23 6.6174e-23 0.000392699 
257 1 5.65409e-47 -1.73113e-22 1.3814e-21 -1 -3 -3 0.05 -7.53734e-38 6.6174e-23 0.000392699 
242 1 -4.62809e-14 -4.52705e-23 1.38141e-21 -4.5 -2.5 -3 0.05 6.58875e-20 6.61765e-24 0.000392711 
246 1 1.44645e-18 -4.51971e-23 1.3814e-21 -3.5 -2.5 -3 0.05 -4.63237e-23 -6.61724e-24 0.000392699 
250 1 -4.51972e-23 -4.51972e-23 1.3814e-21 -2.5 -2.5 -3 0.05 1.98535e-23 1.98523e-23 0.000392699 
254 1 1.36315e-27 -4.51971e-23 1.3814e-21 -1.5 -2.5 -3 0.05 -3.57322e-38 6.61703e-24 0.000392699 
258 1 -2.58056e-46 -4.51971e-23 1.3814e-21 -0.5 -2.5 -3 0.05 1.94799e-37 6.61703e-24 0.000392699 
261 1 8.46041e-14 -6.58857e-27 1.12747e-21 -5 -2 -3 0.05 1.52469e-16 6.61744e-24 0.000392746 
265 1 1.44722e-18 9.44109e-27 1.38124e-21 -4 -2 -3 0.05 7.13956e-20 -4.03393e-37 0.000392699 
269 1 -1.73113e-22 9.36536e-27 1.3814e-21 -3 -2 -3 0.05 6.61746e-23 -1.32349e-23 0.000392699 
273 1 9.4411e-27 9.46633e-27 1.3814e-21 -2 -2 -3 0.05 -2.64702e-23 -2.64702e-23 0.000392699 
277 1 7.70382e-47 9.51682e-27 1.3814e-21 -1 -2 -3 0.05 2.22377e-38 -2.64702e-23 0.000392699 
262 1 -4.62809e-14 1.43888e-27 1.38141e-21 -4.5 -1.5 -3 0.05 6.58941e-20 6.61765e-24 0.000392711 
266 1 1.44645e-18 1.41364e-27 1.3814e-21 -3.5 -1.5 -3 0.05 -5.95574e-23 -4.33713e-40 0.000392699 
270 1 -4.51971e-23 1.3884e-27 1.3814e-21 -2.5 -1.5 -3 0.05 6.61703e-24 -1.18795e-39 0.000392699 
274 1 1.3884e-27 1.41364e-27 1.3814e-21 -1.5 -1.5 -3 0.05 -1.28749e-37 -1.20654e-39 0.000392699 
278 1 -1.72067e-46 1.41364e-27 1.3814e-21 -0.5 -1.5 -3 0.05 3.32669e-37 1.2731e-38 0.000392699 
281 1 8.46041e-14 -9.58604e-50 1.12747e-21 -5 -1 -3 0.05 1.52469e-16 -6.68121e-40 0.000392746 
285 1 1.44722e-18 -1.62455e-48 1.38124e-21 -4 -1 -3 0.05 7.1389e-20 2.69892e-39 0.000392699 
289 1 -1.73113e-22 -1.7004e-48 1.3814e-21 -3 -1 -3 0.05 6.61746e-23 -1.86286e-39 0.000392699 
293 1 9.46634e-27 5.3498e-48 1.3814e-21 -2 -1 -3 0.05 -2.64702e-23 -1.51333e-39 0.000392699 
297 1 6.67813e-47 -1.90401e-48 1.3814e-21 -1 -1 -3 0.05 -1.40925e-37 -8.49968e-40 0.000392699 
282 1 -4.62809e-14 2.52435e-29 1.38141e-21 -4.5 -0.5 -3 0.05 6.58941e-20 2.1018e-37 0.000392711 
286 1 1.44645e-18 -1.78375e-48 1.3814e-21 -3.5 -0.5 -3 0.05 -5.95574e-23 1.93347e-39 0.000392699 
290 1 -4.5197e-23 -2.52435e-29 1.3814e-21 -2.5 -0.5 -3 0.05 6.61703e-24 -1.09041e-39 0.000392699 
294 1 1.3884e-27 -5.77848e-48 1.3814e-21 -1.5 -0.5 -3 0.05 6.19072e-39 1.60037e-38 0.000392699 
298 1 5.11024e-49 -1.64919e-48 1.3814e-21 -0.5 -0.5 -3 0.05 3.11502e-39 -1.72746e-39 0.000392699 
203 1 -4.62729e-14 8.4602e-14 3.61191e-22 -4.5 -5 -2.5 0.05 2.69529e-20 6.33282e-20 0.000392758 
204 1 8.4602e-14 -4.62729e-14 3.61191e-22 -5 -4.5 -2.5 0.05 6.33282e-20 2.69529e-20 0.000392758 
208 1 1.44426e-18 -4.62809e-14 3.6097e-22 -4 -4.5 -2.5 0.05 3.97015e-23 2.68933e-20 0.000392711 
207 1 1.44552e-18 8.46041e-14 3.61375e-22 -3.5 -5 -2.5 0.05 6.61786e-24 6.33944e-20 0.000392746 
212 1 -1.72791e-22 -4.62809e-14 3.6097e-22 -3 -4.5 -2.5 0.05 -6.61507e-24 2.68999e-20 0.000392711 
211 1 -4.51471e-23 8.46041e-14 3.61374e-22 -2.5 -5 -2.5 0.05 -2.64698e-23 6.3401e-20 0.000392746 
216 1 9.34012e-27 -4.62809e-14 3.6097e-22 -2 -4.5 -2.5 0.05 -1.32355e-23 2.68999e-20 0.000392711 
215 1 1.43888e-27 8.46041e-14 3.61375e-22 -1.5 -5 -2.5 0.05 -6.61744e-24 6.33878e-20 0.000392746 
220 1 -2.52435e-29 -4.62809e-14 3.6097e-22 -1 -4.5 -2.5 0.05 -3.16224e-38 2.68999e-20 0.000392711 
219 1 -2.52435e-29 8.46041e-14 3.61375e-22 -0.5 -5 -2.5 0.05 0 6.33878e-20 0.000392746 
223 1 -4.62809e-14 1.44426e-18 3.6097e-22 -4.5 -4 -2.5 0.05 2.68933e-20 3.97045e-23 0.000392711 
227 1 1.44645e-18 1.44722e-18 3.61154e-22 -3.5 -4 -2.5 0.05 1.32367e-23 -1.32347e-23 0.000392699 
231 1 -4.51972e-23 1.44722e-18 3.61154e-22 -2.5 -4 -2.5 0.05 -6.61665e-24 -6.61744e-24 0.000392699 
235 1 1.3884e-27 1.44722e-18 3.61154e-22 -1.5 -4 -2.5 0.05 -1.98523e-23 4.1359e-28 0.000392699 
239 1 -1.52857e-46 1.44722e-18 3.61154e-22 -0.5 -4 -2.5 0.05 1.92789e-37 4.1359e-28 0.000392699 
224 1 8.46041e-14 1.44552e-18 3.61375e-22 -5 -3.5 -2.5 0.05 6.33944e-20 6.61786e-24 0.000392746 
228 1 1.44722e-18 1.44645e-18 3.61154e-22 -4 -3.5 -2.5 0.05 -1.32359e-23 1.32355e-23 0.000392699 
232 1 -1.73112e-22 1.44645e-18 3.61154e-22 -3 -3.5 -2.5 0.05 6.61727e-24 -4.63221e-23 0.000392699 
236 1 9.3906e-27 1.44645e-18 3.61154e-22 -2 -3.5 -2.5 0.05 -6.61765e-24 1.32349e-23 0.000392699 
240 1 5.89806e-47 1.44645e-18 3.61154e-22 -1 -3.5 -2.5 0.05 -4.96126e-38 0 0.000392699 
243 1 -4.62809e-14 -1.72791e-22 3.6097e-22 -4.5 -3 -2.5 0.05 2.68999e-20 -6.61682e-24 0.000392711 
247 1 1.44645e-18 -1.73112e-22 3.61154e-22 -3.5 -3 -2.5 0.05 -4.63233e-23 6.61786e-24 0.000392699 
251 1 -4.51972e-23 -1.73112e-22 3.61154e-22 -2.5 -3 -2.5 0.05 2.647e-23 6.61744e-24 0.000392699 
255 1 1.46413e-27 -1.73112e-22 3.61154e-22 -1.5 -3 -2.5 0.05 -1.32349e-23 -6.61744e-24 0.000392699 
259 1 -2.12776e-46 -1.73112e-22 3.61154e-22 -0.5 -3 -2.5 0.05 1.20237e-37 -6.61744e-24 0.000392699 
244 1 8.46041e-14 -4.51471e-23 3.61374e-22 -5 -2.5 -2.5 0.05 6.3401e-20 -2.64698e-23 0.000392746 
248 1 1.44722e-18 -4.51972e-23 3.61154e-22 -4 -2.5 -2.5 0.05 -6.61861e-24 -6.61724e-24 0.000392699 
252 1 -1.73112e-22 -4.51972e-23 3.61154e-22 -3 -2.5 -2.5 0.05 6.61628e-24 2.647e-23 0.000392699 
256 1 9.3906e-27 -4.51971e-23 3.61154e-22 -2 -2.5 -2.5 0.05 -1.98537e-23 -1.32351e-23 0.000392699 
260 1 8.55096e-47 -4.51971e-23 3.61154e-22 -1 -2.5 -2.5 0.05 -4.30579e-38 -2.06795e-28 0.000392699 
263 1 -4.62809e-14 9.36536e-27 3.6097e-22 -4.5 -2 -2.5 0.05 2.68999e-20 -1.32355e-23 0.000392711 
267 1 1.44645e-18 9.3906e-27 3.61154e-22 -3.5 -2 -2.5 0.05 1.32337e-23 -6.61765e-24 0.000392699 
271 1 -4.51971e-23 9.41585e-27 3.61154e-22 -2.5 -2 -2.5 0.05 -1.32363e-23 -1.98525e-23 0.000392699 
275 1 1.3884e-27 9.34011e-27 3.61154e-22 -1.5 -2 -2.5 0.05 -1.01758e-37 -2.06795e-28 0.000392699 
279 1 -2.41981e-46 9.34011e-27 3.61154e-22 -0.5 -2 -2.5 0.05 3.79901e-37 -2.06795e-28 0.000392699 
264 1 8.46041e-14 1.43888e-27 3.61375e-22 -5 -1.5 -2.5 0.05 6.33878e-20 -6.61744e-24 0.000392746 
268 1 1.44722e-18 1.41364e-27 3.61154e-22 -4 -1.5 -2.5 0.05 -1.34123e-27 -1.98523e-23 0.000392699 
272 1 -1.73112e-22 1.46413e-27 3.61154e-22 -3 -1.5 -2.5 0.05 -6.61861e-24 -1.32349e-23 0.000392699 
276 1 9.31486e-27 1.36315e-27 3.61154e-22 -2 -1.5 -2.5 0.05 -1.37655e-27 0 0.000392699 
280 1 2.6593e-47 1.41364e-27 3.61154e-22 -1 -1.5 -2.5 0.05 -2.22472e-37 0 0.000392699 
283 1 -4.62809e-14 0 3.6097e-22 -4.5 -1 -2.5 0.05 2.68999e-20 0 0.000392711 
287 1 1.44645e-18 0 3.61154e-22 -3.5 -1 -2.5 0.05 -1.16981e-27 0 0.000392699 
291 1 -4.51971e-23 -2.52435e-29 3.61154e-22 -2.5 -1 -2.5 0.05 -1.37655e-27 0 0.000392699 
295 1 1.3884e-27 0 3.61154e-22 -1.5 -1 -2.5 0.05 5.253e-38 0 0.000392699 
299 1 4.33618e-48 0 3.61154e-22 -0.5 -1 -2.5 0.05 2.64318e-38 0 0.000392699 
284 1 8.46041e-14 -2.52435e-29 3.61375e-22 -5 -0.5 -2.5 0.05 6.33878e-20 0 0.000392746 
288 1 1.44722e-18 0 3.61154e-22 -4 -0.5 -2.5 0.05 -1.34112e-27 0 0.000392699 
292 1 -1.73112e-22 0 3.61154e-22 -3 -0.5 -2.5 0.05 -6.61861e-24 0 0.000392699 
296 1 9.31486e-27 0 3.61154e-22 -2 -0.5 -2.5 0.05 -1.37661e-27 0 0.000392699 
300 1 -2.88721e-44 0 3.61154e-22 -1 -0.5 -2.5 0.05 -2.29809e-38 0 0.000392699 
301 1 2.15522e-13 2.15522e-13 8.64465e-26 -5 -5 -2 0.05 7.94755e-21 7.94755e-21 0.000392758 
302 1 -4.62953e-14 -4.62953e-14 1.50086e-25 -4.5 -4.5 -2 0.05 -1.32366e-23 -6.61744e-24 0.000392724 
305 1 -6.73313e-18 8.46001e-14 1.18253e-25 -4 -5 -2 0.05 2.64698e-23 7.94093e-21 0.000392746 
306 1 1.44767e-18 -4.62809e-14 1.5006e-25 -3.5 -4.5 -2 0.05 6.6192e-24 6.61744e-24 0.000392711 
309 1 2.10222e-22 8.46041e-14 1.18481e-25 -3 -5 -2 0.05 -1.98523e-23 7.94755e-21 0.000392746 
310 1 -4.52703e-23 -4.62809e-14 1.50161e-25 -2.5 -4.5 -2 0.05 -6.61686e-24 1.32349e-23 0.000392711 
313 1 -6.51284e-27 8.46041e-14 1.18405e-25 -2 -5 -2 0.05 4.91259e-39 7.94093e-21 0.000392746 
314 1 1.41364e-27 -4.62809e-14 1.50313e-25 -1.5 -4.5 -2 0.05 -6.61744e-24 1.75363e-37 0.000392711 
317 1 2.17796e-47 8.46041e-14 1.18481e-25 -1 -5 -2 0.05 9.95046e-40 7.93431e-21 0.000392746 
318 1 -3.93105e-47 -4.62809e-14 1.50388e-25 -0.5 -4.5 -2 0.05 1.44259e-37 1.89757e-37 0.000392711 
321 1 8.46001e-14 -6.73313e-18 1.18253e-25 -5 -4 -2 0.05 7.94093e-21 2.64698e-23 0.000392746 
325 1 1.44875e-18 1.44875e-18 1.4982e-25 -4 -4 -2 0.05 3.30878e-23 3.30872e-23 0.000392699 