ITEM: TIMESTEP
1
ITEM: NUMBER OF ATOMS
2
ITEM: BOX BOUNDS ff ff ff
-10 10
-10 10
-10 10
ITEM: ATOMS id type fx fy fz x y z radius mux muy muz 
2 1 2.78363e-21 6.08035e-21 3.24275e-08 0 0 -3.7 1 0 0 3.17291 
1 1 -4.62577e-22 -9.59809e-21 -3.24097e-08 0 0 0 1 0 0 3.17291 
