ITEM: TIMESTEP
2
ITEM: NUMBER OF ATOMS
2
ITEM: BOX BOUNDS ff ff ff
-10 10
-10 10
-10 10
ITEM: ATOMS id type fx fy fz x y z radius mux muy muz 
2 1 -3.09365e-20 -9.92322e-21 -7.67597e-08 0 0 -2.4 1 0 3.08579 0 
1 1 -2.09157e-21 -2.03165e-20 7.67597e-08 0 0 0 1 0 3.08579 0 
