ITEM: TIMESTEP
1
ITEM: NUMBER OF ATOMS
2
ITEM: BOX BOUNDS ff ff ff
-10 10
-10 10
-10 10
ITEM: ATOMS id type fx fy fz x y z radius mux muy muz 
2 1 -7.16944e-21 1.36696e-20 -5.04559e-08 0 0 -2.7 1 0 3.10219 0 
1 1 4.26856e-20 1.54734e-20 5.04559e-08 0 0 0 1 0 3.10219 0 
