ITEM: TIMESTEP
2
ITEM: NUMBER OF ATOMS
2
ITEM: BOX BOUNDS ff ff ff
-10 10
-10 10
-10 10
ITEM: ATOMS id type fx fy fz x y z radius mux muy muz 
2 1 -1.08987e-20 7.70825e-21 -4.62085e-08 0 0 -2.8 1 0 3.10622 0 
1 1 1.74615e-20 1.64873e-21 4.62085e-08 0 0 0 1 0 3.10622 0 
