ITEM: TIMESTEP
1
ITEM: NUMBER OF ATOMS
2
ITEM: BOX BOUNDS ff ff ff
-10 10
-10 10
-10 10
ITEM: ATOMS id type fx fy fz x y z radius mux muy muz 
2 1 1.28612e-20 1.57968e-20 -5.3071e-08 0 0 -2.7 1 0 3.10219 0 
1 1 -1.24509e-21 -1.65771e-20 5.3071e-08 0 0 0 1 0 3.10219 0 
