ITEM: TIMESTEP
2
ITEM: NUMBER OF ATOMS
2
ITEM: BOX BOUNDS ff ff ff
-10 10
-10 10
-10 10
ITEM: ATOMS id type fx fy fz x y z radius mux muy muz 
2 1 -4.29897e-20 6.4131e-21 -1.93965e-08 0 0 -3.5 1 0 3.12338 0 
1 1 4.54517e-20 6.5186e-21 1.93965e-08 0 0 0 1 0 3.12338 0 
