ITEM: TIMESTEP
1
ITEM: NUMBER OF ATOMS
2
ITEM: BOX BOUNDS ff ff ff
-10 10
-10 10
-10 10
ITEM: ATOMS id type fx fy fz x y z radius mux muy muz 
2 1 2.32874e-20 -8.8457e-21 -4.62085e-08 0 0 -2.8 1 0 3.10622 0 
1 1 -3.89927e-21 7.65055e-21 4.62085e-08 0 0 0 1 0 3.10622 0 
