ITEM: TIMESTEP
2
ITEM: NUMBER OF ATOMS
2
ITEM: BOX BOUNDS ff ff ff
-10 10
-10 10
-10 10
ITEM: ATOMS id type fx fy fz x y z radius mux muy muz 
2 1 1.31453e-20 -7.28223e-21 -7.079e-08 0 0 -2.5 1 0 3.09212 0 
1 1 1.13906e-20 -1.82286e-20 7.079e-08 0 0 0 1 0 3.09212 0 
