ITEM: TIMESTEP
0
ITEM: NUMBER OF ATOMS
2
ITEM: BOX BOUNDS ff ff ff
-10 10
-10 10
-10 10
ITEM: ATOMS id type fx fy fz x y z radius mux muy muz 
2 1 3.97834e-20 1.71802e-20 -1.69876e-08 0 0 -3.6 1 0 3.12486 0 
1 1 -1.98122e-20 3.75099e-21 1.69875e-08 0 0 0 1 0 3.12485 0 
