ITEM: TIMESTEP
2
ITEM: NUMBER OF ATOMS
2
ITEM: BOX BOUNDS ff ff ff
-10 10
-10 10
-10 10
ITEM: ATOMS id type fx fy fz x y z radius mux muy muz 
2 1 -1.35923e-20 3.93564e-21 -1.02994e-07 0 0 -2.2 1 0 3.06952 0 
1 1 -2.21021e-21 1.32882e-20 1.02994e-07 0 0 0 1 0 3.06952 0 
