ITEM: TIMESTEP
0
ITEM: NUMBER OF ATOMS
2
ITEM: BOX BOUNDS ff ff ff
-10 10
-10 10
-10 10
ITEM: ATOMS id type fx fy fz x y z radius mux muy muz 
2 1 -1.65747e-20 2.89263e-20 -1.03022e-07 0 0 -2.2 1 0 3.06977 0 
1 1 5.51723e-21 -7.96022e-22 1.03003e-07 0 0 0 1 0 3.06952 0 
