ITEM: TIMESTEP
1
ITEM: NUMBER OF ATOMS
1
ITEM: BOX BOUNDS ff ff ff
-10 10
-10 10
-10 10
ITEM: ATOMS id type fx fy fz x y z radius mux muy muz 
3 1 3.73342e-22 -5.32812e-20 1.01065e-07 0 0 -2.9 1 0 0 3.21165 
