ITEM: TIMESTEP
164000
ITEM: NUMBER OF ATOMS
1
ITEM: BOX BOUNDS ff ff ff
-1 1
-1 1
0 10
ITEM: ATOMS id type fx fy fz x y z radius mass 
1 1 0 0 -0.216192 0 0 0.648888 0.5 1 
