ITEM: TIMESTEP
679000
ITEM: NUMBER OF ATOMS
4
ITEM: BOX BOUNDS ff ff ff
-1 1
-1 1
0 10
ITEM: ATOMS id type fx fy fz x y z radius mass 
1 1 0 0 -0.582909 0 0 0.648066 0.5 1 
2 1 0 0 -0.702479 0 0 1.64639 0.5 0.523599 
3 1 0 0 -1.0565 0 0 2.64514 0.5 0.523599 
4 1 0 0 -1.30018 0 0 3.64437 0.5 0.523599 
