ITEM: TIMESTEP
719000
ITEM: NUMBER OF ATOMS
4
ITEM: BOX BOUNDS ff ff ff
-1 1
-1 1
0 10
ITEM: ATOMS id type fx fy fz x y z radius mass 
1 1 0 0 0.046617 0 0 0.647871 0.5 1 
2 1 0 0 0.0574255 0 0 1.64593 0.5 0.523599 
3 1 0 0 0.0869314 0 0 2.64445 0.5 0.523599 
4 1 0 0 0.107103 0 0 3.64352 0.5 0.523599 
