ITEM: TIMESTEP
557000
ITEM: NUMBER OF ATOMS
3
ITEM: BOX BOUNDS ff ff ff
-1 1
-1 1
0 10
ITEM: ATOMS id type fx fy fz x y z radius mass 
1 1 0 0 -0.0172943 0 0 0.648186 0.5 1 
2 1 0 0 -0.0186844 0 0 1.64673 0.5 0.523599 
3 1 0 0 -0.0256773 0 0 2.64581 0.5 0.523599 
