ITEM: TIMESTEP
657000
ITEM: NUMBER OF ATOMS
4
ITEM: BOX BOUNDS ff ff ff
-1 1
-1 1
0 10
ITEM: ATOMS id type fx fy fz x y z radius mass 
1 1 0 0 -0.798857 0 0 0.648555 0.5 1 
2 1 0 0 -1.51634 0 0 1.64761 0.5 0.523599 
3 1 0 0 -3.15329 0 0 2.64715 0.5 0.523599 
4 1 0 0 -4.8572 0 0 3.64705 0.5 0.523599 
