ITEM: TIMESTEP
787000
ITEM: NUMBER OF ATOMS
4
ITEM: BOX BOUNDS ff ff ff
-1 1
-1 1
0 10
ITEM: ATOMS id type fx fy fz x y z radius mass 
1 1 0 0 -0.000145582 0 0 0.647884 0.5 1 
2 1 0 0 -0.000101326 0 0 1.64596 0.5 0.523599 
3 1 0 0 -0.000110939 0 0 2.6445 0.5 0.523599 
4 1 0 0 -0.000127807 0 0 3.64358 0.5 0.523599 
