ITEM: TIMESTEP
631000
ITEM: NUMBER OF ATOMS
4
ITEM: BOX BOUNDS ff ff ff
-1 1
-1 1
0 10
ITEM: ATOMS id type fx fy fz x y z radius mass 
1 1 0 0 -11.2583 0 0 0.646202 0.5 1 
2 1 0 0 -1.92154 0 0 1.64222 0.5 0.523599 
3 1 0 0 7.02538 0 0 2.63871 0.5 0.523599 
4 1 0 0 14.3351 0 0 3.63623 0.5 0.523599 
