ITEM: TIMESTEP
565000
ITEM: NUMBER OF ATOMS
3
ITEM: BOX BOUNDS ff ff ff
-1 1
-1 1
0 10
ITEM: ATOMS id type fx fy fz x y z radius mass 
1 1 0 0 -0.00970779 0 0 0.648184 0.5 1 
2 1 0 0 -0.0111805 0 0 1.64672 0.5 0.523599 
3 1 0 0 -0.0156694 0 0 2.6458 0.5 0.523599 
