ITEM: TIMESTEP
504000
ITEM: NUMBER OF ATOMS
3
ITEM: BOX BOUNDS ff ff ff
-1 1
-1 1
0 10
ITEM: ATOMS id type fx fy fz x y z radius mass 
1 1 0 0 10.5741 0 0 0.647382 0.5 1 
2 1 0 0 7.01717 0 0 1.64486 0.5 0.523599 
3 1 0 0 3.19474 0 0 2.6434 0.5 0.523599 
