ITEM: TIMESTEP
327000
ITEM: NUMBER OF ATOMS
2
ITEM: BOX BOUNDS ff ff ff
-1 1
-1 1
0 10
ITEM: ATOMS id type fx fy fz x y z radius mass 
1 1 0 0 -0.671313 0 0 0.648756 0.5 1 
2 1 0 0 -0.601327 0 0 1.64806 0.5 0.523599 
