ITEM: TIMESTEP
716000
ITEM: NUMBER OF ATOMS
4
ITEM: BOX BOUNDS ff ff ff
-1 1
-1 1
0 10
ITEM: ATOMS id type fx fy fz x y z radius mass 
1 1 0 0 -0.0547463 0 0 0.647906 0.5 1 
2 1 0 0 -0.061634 0 0 1.64601 0.5 0.523599 
3 1 0 0 -0.0901687 0 0 2.64457 0.5 0.523599 
4 1 0 0 -0.11048 0 0 3.64366 0.5 0.523599 
