ITEM: TIMESTEP
526000
ITEM: NUMBER OF ATOMS
3
ITEM: BOX BOUNDS ff ff ff
-1 1
-1 1
0 10
ITEM: ATOMS id type fx fy fz x y z radius mass 
1 1 0 0 -0.234073 0 0 0.648205 0.5 1 
2 1 0 0 -0.282418 0 0 1.64678 0.5 0.523599 
3 1 0 0 -0.398149 0 0 2.64589 0.5 0.523599 
