ITEM: TIMESTEP
642000
ITEM: NUMBER OF ATOMS
4
ITEM: BOX BOUNDS ff ff ff
-1 1
-1 1
0 10
ITEM: ATOMS id type fx fy fz x y z radius mass 
1 1 0 0 10.0648 0 0 0.647605 0.5 1 
2 1 0 0 3.62633 0 0 1.64614 0.5 0.523599 
3 1 0 0 -5.1365 0 0 2.66047 0.5 0.523599 
4 1 0 0 -5.1365 0 0 3.67533 0.5 0.523599 
