ITEM: TIMESTEP
662000
ITEM: NUMBER OF ATOMS
4
ITEM: BOX BOUNDS ff ff ff
-1 1
-1 1
0 10
ITEM: ATOMS id type fx fy fz x y z radius mass 
1 1 0 0 2.28756 0 0 0.647326 0.5 1 
2 1 0 0 2.38798 0 0 1.64472 0.5 0.523599 
3 1 0 0 3.20668 0 0 2.64267 0.5 0.523599 
4 1 0 0 3.63888 0 0 3.64136 0.5 0.523599 
