ITEM: TIMESTEP
385000
ITEM: NUMBER OF ATOMS
2
ITEM: BOX BOUNDS ff ff ff
-1 1
-1 1
0 10
ITEM: ATOMS id type fx fy fz x y z radius mass 
1 1 0 0 -5.51338e-05 0 0 0.648507 0.5 1 
2 1 0 0 -5.40344e-05 0 0 1.64758 0.5 0.523599 
