ITEM: TIMESTEP
511000
ITEM: NUMBER OF ATOMS
3
ITEM: BOX BOUNDS ff ff ff
-1 1
-1 1
0 10
ITEM: ATOMS id type fx fy fz x y z radius mass 
1 1 0 0 -0.416555 0 0 0.648329 0.5 1 
2 1 0 0 -0.106736 0 0 1.64698 0.5 0.523599 
3 1 0 0 0.23455 0 0 2.64614 0.5 0.523599 
