ITEM: TIMESTEP
531000
ITEM: NUMBER OF ATOMS
3
ITEM: BOX BOUNDS ff ff ff
-1 1
-1 1
0 10
ITEM: ATOMS id type fx fy fz x y z radius mass 
1 1 0 0 0.173842 0 0 0.648158 0.5 1 
2 1 0 0 0.213616 0 0 1.64666 0.5 0.523599 
3 1 0 0 0.306084 0 0 2.64571 0.5 0.523599 
