ITEM: TIMESTEP
738000
ITEM: NUMBER OF ATOMS
4
ITEM: BOX BOUNDS ff ff ff
-1 1
-1 1
0 10
ITEM: ATOMS id type fx fy fz x y z radius mass 
1 1 0 0 -0.0212378 0 0 0.647891 0.5 1 
2 1 0 0 -0.0249043 0 0 1.64598 0.5 0.523599 
3 1 0 0 -0.0370136 0 0 2.64452 0.5 0.523599 
4 1 0 0 -0.0454463 0 0 3.6436 0.5 0.523599 
