ITEM: TIMESTEP
194000
ITEM: NUMBER OF ATOMS
1
ITEM: BOX BOUNDS ff ff ff
-1 1
-1 1
0 10
ITEM: ATOMS id type fx fy fz x y z radius mass 
1 1 0 0 -1.07436e-06 0 0 0.648872 0.5 1 
