ITEM: TIMESTEP
550000
ITEM: NUMBER OF ATOMS
3
ITEM: BOX BOUNDS ff ff ff
-1 1
-1 1
0 10
ITEM: ATOMS id type fx fy fz x y z radius mass 
1 1 0 0 0.0293582 0 0 0.648177 0.5 1 
2 1 0 0 0.0353969 0 0 1.64671 0.5 0.523599 
3 1 0 0 0.0502942 0 0 2.64578 0.5 0.523599 
