ITEM: TIMESTEP
484000
ITEM: NUMBER OF ATOMS
3
ITEM: BOX BOUNDS ff ff ff
-1 1
-1 1
0 10
ITEM: ATOMS id type fx fy fz x y z radius mass 
1 1 0 0 -12.7631 0 0 0.649805 0.5 1 
2 1 0 0 -5.1365 0 0 1.65011 0.5 0.523599 
3 1 0 0 -5.1365 0 0 2.6945 0.5 0.523599 
