ITEM: TIMESTEP
430000
ITEM: NUMBER OF ATOMS
3
ITEM: BOX BOUNDS ff ff ff
-1 1
-1 1
0 10
ITEM: ATOMS id type fx fy fz x y z radius mass 
1 1 0 0 -8.47889e-09 0 0 0.648507 0.5 1 
2 1 0 0 -7.94677e-09 0 0 1.64758 0.5 0.523599 
3 1 0 0 -5.1365 0 0 3.55855 0.5 0.523599 
