ITEM: TIMESTEP
676000
ITEM: NUMBER OF ATOMS
4
ITEM: BOX BOUNDS ff ff ff
-1 1
-1 1
0 10
ITEM: ATOMS id type fx fy fz x y z radius mass 
1 1 0 0 0.302685 0 0 0.647731 0.5 1 
2 1 0 0 0.322302 0 0 1.64564 0.5 0.523599 
3 1 0 0 0.464508 0 0 2.64404 0.5 0.523599 
4 1 0 0 0.57062 0 0 3.64301 0.5 0.523599 
