ITEM: TIMESTEP
644000
ITEM: NUMBER OF ATOMS
4
ITEM: BOX BOUNDS ff ff ff
-1 1
-1 1
0 10
ITEM: ATOMS id type fx fy fz x y z radius mass 
1 1 0 0 -3.48729 0 0 0.64869 0.5 1 
2 1 0 0 -2.52631 0 0 1.64793 0.5 0.523599 
3 1 0 0 -5.1365 0 0 2.65172 0.5 0.523599 
4 1 0 0 -5.1365 0 0 3.66975 0.5 0.523599 
