ITEM: TIMESTEP
752000
ITEM: NUMBER OF ATOMS
4
ITEM: BOX BOUNDS ff ff ff
-1 1
-1 1
0 10
ITEM: ATOMS id type fx fy fz x y z radius mass 
1 1 0 0 -0.00180522 0 0 0.647885 0.5 1 
2 1 0 0 -0.00159964 0 0 1.64597 0.5 0.523599 
3 1 0 0 -0.00208058 0 0 2.6445 0.5 0.523599 
4 1 0 0 -0.00249022 0 0 3.64358 0.5 0.523599 
