ITEM: TIMESTEP
667000
ITEM: NUMBER OF ATOMS
4
ITEM: BOX BOUNDS ff ff ff
-1 1
-1 1
0 10
ITEM: ATOMS id type fx fy fz x y z radius mass 
1 1 0 0 -1.0286 0 0 0.6482 0.5 1 
2 1 0 0 -1.26362 0 0 1.64671 0.5 0.523599 
3 1 0 0 -1.91857 0 0 2.64564 0.5 0.523599 
4 1 0 0 -2.36995 0 0 3.64499 0.5 0.523599 
