ITEM: TIMESTEP
311000
ITEM: NUMBER OF ATOMS
2
ITEM: BOX BOUNDS ff ff ff
-1 1
-1 1
0 10
ITEM: ATOMS id type fx fy fz x y z radius mass 
1 1 0 0 -15.3881 0 0 0.648287 0.5 1 
2 1 0 0 -6.33929 0 0 1.64737 0.5 0.523599 
