ITEM: TIMESTEP
665000
ITEM: NUMBER OF ATOMS
4
ITEM: BOX BOUNDS ff ff ff
-1 1
-1 1
0 10
ITEM: ATOMS id type fx fy fz x y z radius mass 
1 1 0 0 -0.0904633 0 0 0.647771 0.5 1 
2 1 0 0 -0.0831358 0 0 1.64575 0.5 0.523599 
3 1 0 0 -0.0771058 0 0 2.6442 0.5 0.523599 
4 1 0 0 -0.0324559 0 0 3.64321 0.5 0.523599 
