ITEM: TIMESTEP
354000
ITEM: NUMBER OF ATOMS
2
ITEM: BOX BOUNDS ff ff ff
-1 1
-1 1
0 10
ITEM: ATOMS id type fx fy fz x y z radius mass 
1 1 0 0 -0.012898 0 0 0.648507 0.5 1 
2 1 0 0 -0.013804 0 0 1.64759 0.5 0.523599 
