ITEM: TIMESTEP
744000
ITEM: NUMBER OF ATOMS
4
ITEM: BOX BOUNDS ff ff ff
-1 1
-1 1
0 10
ITEM: ATOMS id type fx fy fz x y z radius mass 
1 1 0 0 0.01484 0 0 0.647878 0.5 1 
2 1 0 0 0.0172942 0 0 1.64595 0.5 0.523599 
3 1 0 0 0.0256321 0 0 2.64448 0.5 0.523599 
4 1 0 0 0.0314434 0 0 3.64355 0.5 0.523599 
