ITEM: TIMESTEP
754000
ITEM: NUMBER OF ATOMS
4
ITEM: BOX BOUNDS ff ff ff
-1 1
-1 1
0 10
ITEM: ATOMS id type fx fy fz x y z radius mass 
1 1 0 0 0.00659205 0 0 0.647882 0.5 1 
2 1 0 0 0.0080594 0 0 1.64596 0.5 0.523599 
3 1 0 0 0.0121637 0 0 2.64449 0.5 0.523599 
4 1 0 0 0.0149712 0 0 3.64357 0.5 0.523599 
