ITEM: TIMESTEP
647000
ITEM: NUMBER OF ATOMS
4
ITEM: BOX BOUNDS ff ff ff
-1 1
-1 1
0 10
ITEM: ATOMS id type fx fy fz x y z radius mass 
1 1 0 0 17.1483 0 0 0.646948 0.5 1 
2 1 0 0 8.31221 0 0 1.64425 0.5 0.523599 
3 1 0 0 5.19819 0 0 2.64275 0.5 0.523599 
4 1 0 0 -5.1365 0 0 3.65403 0.5 0.523599 
