ITEM: TIMESTEP
533000
ITEM: NUMBER OF ATOMS
3
ITEM: BOX BOUNDS ff ff ff
-1 1
-1 1
0 10
ITEM: ATOMS id type fx fy fz x y z radius mass 
1 1 0 0 0.209077 0 0 0.648132 0.5 1 
2 1 0 0 0.227871 0 0 1.64661 0.5 0.523599 
3 1 0 0 0.313107 0 0 2.64564 0.5 0.523599 
