ITEM: TIMESTEP
654000
ITEM: NUMBER OF ATOMS
4
ITEM: BOX BOUNDS ff ff ff
-1 1
-1 1
0 10
ITEM: ATOMS id type fx fy fz x y z radius mass 
1 1 0 0 -4.69881 0 0 0.648288 0.5 1 
2 1 0 0 -3.06195 0 0 1.6467 0.5 0.523599 
3 1 0 0 -2.1791 0 0 2.64535 0.5 0.523599 
4 1 0 0 -0.760951 0 0 3.64439 0.5 0.523599 
