ITEM: TIMESTEP
753000
ITEM: NUMBER OF ATOMS
4
ITEM: BOX BOUNDS ff ff ff
-1 1
-1 1
0 10
ITEM: ATOMS id type fx fy fz x y z radius mass 
1 1 0 0 0.00307648 0 0 0.647883 0.5 1 
2 1 0 0 0.00409725 0 0 1.64596 0.5 0.523599 
3 1 0 0 0.006369 0 0 2.6445 0.5 0.523599 
4 1 0 0 0.00787914 0 0 3.64357 0.5 0.523599 
