ITEM: TIMESTEP
720000
ITEM: NUMBER OF ATOMS
4
ITEM: BOX BOUNDS ff ff ff
-1 1
-1 1
0 10
ITEM: ATOMS id type fx fy fz x y z radius mass 
1 1 0 0 0.0593727 0 0 0.647865 0.5 1 
2 1 0 0 0.0705324 0 0 1.64592 0.5 0.523599 
3 1 0 0 0.105279 0 0 2.64443 0.5 0.523599 
4 1 0 0 0.129279 0 0 3.6435 0.5 0.523599 
