ITEM: TIMESTEP
1
ITEM: NUMBER OF ATOMS
2
ITEM: BOX BOUNDS ff ff ff
-10 10
-10 10
-10 10
ITEM: ATOMS id type fx fy fz x y z radius mux muy muz 
2 1 -5.00325e-21 -4.46857e-22 -4.70987e-08 0 0 -2.8 1 0 3.10622 0 
1 1 -2.23119e-20 -1.26928e-21 4.70987e-08 0 0 0 1 0 3.10622 0 
