ITEM: TIMESTEP
2
ITEM: NUMBER OF ATOMS
2
ITEM: BOX BOUNDS ff ff ff
-10 10
-10 10
-10 10
ITEM: ATOMS id type fx fy fz x y z radius mux muy muz 
2 1 -2.2272e-21 -1.14786e-21 -1.5644e-08 0 0 -3.7 1 0 3.12616 0 
1 1 2.43272e-21 -1.69097e-21 1.5644e-08 0 0 0 1 0 3.12616 0 
