ITEM: TIMESTEP
1
ITEM: NUMBER OF ATOMS
2
ITEM: BOX BOUNDS ff ff ff
-10 10
-10 10
-10 10
ITEM: ATOMS id type fx fy fz x y z radius mux muy muz 
2 1 -4.02699e-21 1.03892e-21 -2.46243e-08 0 0 -3.3 1 0 3.11989 0 
1 1 1.23348e-20 3.11213e-22 2.46243e-08 0 0 0 1 0 3.11989 0 
