ITEM: TIMESTEP
0
ITEM: NUMBER OF ATOMS
2
ITEM: BOX BOUNDS ff ff ff
-10 10
-10 10
-10 10
ITEM: ATOMS id type fx fy fz x y z radius mux muy muz 
2 1 9.61562e-21 -1.53903e-21 -1.95036e-08 0 0 -3.5 1 0 3.12339 0 
1 1 1.05994e-20 -1.65406e-21 1.95036e-08 0 0 0 1 0 3.12338 0 
