ITEM: TIMESTEP
2
ITEM: NUMBER OF ATOMS
2
ITEM: BOX BOUNDS ff ff ff
-10 10
-10 10
-10 10
ITEM: ATOMS id type fx fy fz x y z radius mux muy muz 
2 1 1.05095e-20 -1.20064e-21 -2.46243e-08 0 0 -3.3 1 0 3.11989 0 
1 1 -8.79012e-21 -1.3288e-21 2.46243e-08 0 0 0 1 0 3.11989 0 
