ITEM: TIMESTEP
0
ITEM: NUMBER OF ATOMS
2
ITEM: BOX BOUNDS ff ff ff
-10 10
-10 10
-10 10
ITEM: ATOMS id type fx fy fz x y z radius mux muy muz 
2 1 -7.08477e-22 -5.42938e-22 -8.61327e-08 0 0 -2.4 1 0 3.08592 0 
1 1 3.95109e-21 -3.84048e-21 8.61329e-08 0 0 0 1 0 3.08579 0 
