ITEM: TIMESTEP
2
ITEM: NUMBER OF ATOMS
2
ITEM: BOX BOUNDS ff ff ff
-10 10
-10 10
-10 10
ITEM: ATOMS id type fx fy fz x y z radius mux muy muz 
2 1 1.52271e-20 -2.45571e-21 -8.61292e-08 0 0 -2.4 1 0 3.08579 0 
1 1 5.06762e-21 1.14038e-21 8.61292e-08 0 0 0 1 0 3.08579 0 
