ITEM: TIMESTEP
1
ITEM: NUMBER OF ATOMS
2
ITEM: BOX BOUNDS ff ff ff
-10 10
-10 10
-10 10
ITEM: ATOMS id type fx fy fz x y z radius mux muy muz 
2 1 1.99743e-20 -1.22276e-23 -1.74184e-07 0 0 -2 1 0 3.04649 0 
1 1 -1.21566e-20 -3.48389e-21 1.74185e-07 0 0 0 1 0 3.04639 0 
