ITEM: TIMESTEP
2
ITEM: NUMBER OF ATOMS
2
ITEM: BOX BOUNDS ff ff ff
-10 10
-10 10
-10 10
ITEM: ATOMS id type fx fy fz x y z radius mux muy muz 
2 1 -3.9048e-21 -3.13892e-22 -1.95035e-08 0 0 -3.5 1 0 3.12338 0 
1 1 4.78566e-21 -5.72593e-22 1.95035e-08 0 0 0 1 0 3.12338 0 
