ITEM: TIMESTEP
1
ITEM: NUMBER OF ATOMS
2
ITEM: BOX BOUNDS ff ff ff
-10 10
-10 10
-10 10
ITEM: ATOMS id type fx fy fz x y z radius mux muy muz 
2 1 2.07585e-20 5.17616e-22 -7.34488e-08 0 0 -2.5 1 0 3.09212 0 
1 1 3.45419e-21 -5.53079e-22 7.34488e-08 0 0 0 1 0 3.09212 0 
