ITEM: TIMESTEP
0
ITEM: NUMBER OF ATOMS
2
ITEM: BOX BOUNDS ff ff ff
-10 10
-10 10
-10 10
ITEM: ATOMS id type fx fy fz x y z radius mux muy muz 
2 1 -4.94443e-21 6.16149e-22 -7.34511e-08 0 0 -2.5 1 0 3.09222 0 
1 1 -2.41802e-21 -7.33773e-22 7.34512e-08 0 0 0 1 0 3.09212 0 
