ITEM: TIMESTEP
1
ITEM: NUMBER OF ATOMS
2
ITEM: BOX BOUNDS ff ff ff
-10 10
-10 10
-10 10
ITEM: ATOMS id type fx fy fz x y z radius mux muy muz 
2 1 -4.27647e-21 -2.10642e-21 -8.61292e-08 0 0 -2.4 1 0 3.08579 0 
1 1 -1.81923e-20 -2.2797e-21 8.61292e-08 0 0 0 1 0 3.08579 0 
