ITEM: TIMESTEP
0
ITEM: NUMBER OF ATOMS
2
ITEM: BOX BOUNDS ff ff ff
-10 10
-10 10
-10 10
ITEM: ATOMS id type fx fy fz x y z radius mux muy muz 
2 1 -5.61344e-21 -2.09966e-21 -1.14763e-08 0 0 -4 1 0 3.12937 0 
1 1 -1.26657e-21 -7.50424e-22 1.14763e-08 0 0 0 1 0 3.12937 0 
