ITEM: TIMESTEP
1
ITEM: NUMBER OF ATOMS
2
ITEM: BOX BOUNDS ff ff ff
-10 10
-10 10
-10 10
ITEM: ATOMS id type fx fy fz x y z radius mux muy muz 
2 1 1.55006e-21 -9.08154e-22 -2.78128e-08 0 0 -3.2 1 0 3.11781 0 
1 1 -1.05591e-20 2.83238e-23 2.78128e-08 0 0 0 1 0 3.11781 0 
