ITEM: TIMESTEP
1
ITEM: NUMBER OF ATOMS
2
ITEM: BOX BOUNDS ff ff ff
-10 10
-10 10
-10 10
ITEM: ATOMS id type fx fy fz x y z radius mux muy muz 
2 1 -4.34385e-21 -2.16893e-22 -4.1022e-08 0 0 -2.9 1 0 3.10972 0 
1 1 -9.22045e-21 1.66218e-21 4.1022e-08 0 0 0 1 0 3.10972 0 
