ITEM: TIMESTEP
0
ITEM: NUMBER OF ATOMS
2
ITEM: BOX BOUNDS ff ff ff
-10 10
-10 10
-10 10
ITEM: ATOMS id type fx fy fz x y z radius mux muy muz 
2 1 2.02867e-21 2.49002e-21 -1.5644e-08 0 0 -3.7 1 0 3.12617 0 
1 1 1.59776e-20 -2.06345e-21 1.5644e-08 0 0 0 1 0 3.12616 0 
