ITEM: TIMESTEP
2
ITEM: NUMBER OF ATOMS
2
ITEM: BOX BOUNDS ff ff ff
-10 10
-10 10
-10 10
ITEM: ATOMS id type fx fy fz x y z radius mux muy muz 
2 1 7.41348e-21 1.04883e-21 -1.01631e-07 0 0 -2.3 1 0 3.07834 0 
1 1 2.04788e-20 -5.42434e-22 1.01631e-07 0 0 0 1 0 3.07834 0 
