ITEM: TIMESTEP
0
ITEM: NUMBER OF ATOMS
2
ITEM: BOX BOUNDS ff ff ff
-10 10
-10 10
-10 10
ITEM: ATOMS id type fx fy fz x y z radius mux muy muz 
2 1 5.36117e-21 -9.66437e-22 -3.15318e-08 0 0 -3.1 1 0 3.11547 0 
1 1 -3.69313e-21 -1.36973e-22 3.15318e-08 0 0 0 1 0 3.11545 0 
