ITEM: TIMESTEP
2
ITEM: NUMBER OF ATOMS
2
ITEM: BOX BOUNDS ff ff ff
-10 10
-10 10
-10 10
ITEM: ATOMS id type fx fy fz x y z radius mux muy muz 
2 1 2.28727e-20 -3.78025e-22 -1.26916e-08 0 0 -3.9 1 0 3.12841 0 
1 1 -2.27654e-20 -7.89027e-22 1.26916e-08 0 0 0 1 0 3.12841 0 
